VARIABLES = X, Y, e
ZONE N = 1681, E = 1600
ZONETYPE = FEQUADRILATERAL
DATAPACKING = BLOCK
varlocation=([3]=cellcentered)
0
1.63555e-19
0
1.00615e-19
0
0
1.07e-19
1.08901e-19
0
1.12293e-19
1.18085e-19
-5.79492e-20
5.88817e-20
0
1.25098e-19
0
6.66614e-20
-1.30723e-19
6.84022e-20
6.89983e-20
0
1.33541e-19
-3.88379e-21
0
6.66614e-20
-6.55683e-20
-1.01471e-21
-1.26048e-19
0
0
-1.18085e-19
0
0
0
-1.07e-19
1.03808e-19
0
-9.39072e-20
0
-8.05116e-20
0
0.0250787
0.0250785
0.0250777
0.0250765
0.0250748
0.0250727
0.0250701
0.0250671
0.0250637
0.0250599
0.0250557
0.0250511
0.0250463
0.0250412
0.0250358
0.0250302
0.0250244
0.0250185
0.0250124
0.0250063
0.0250001
0.024994
0.0249878
0.0249818
0.0249759
0.0249701
0.0249645
0.0249591
0.024954
0.0249491
0.0249446
0.0249404
0.0249366
0.0249331
0.0249301
0.0249275
0.0249254
0.0249237
0.0249225
0.0249218
0.0249216
0.0501569
0.0501564
0.050155
0.0501526
0.0501492
0.050145
0.0501398
0.0501338
0.050127
0.0501194
0.050111
0.050102
0.0500923
0.0500821
0.0500714
0.0500602
0.0500487
0.0500368
0.0500248
0.0500126
0.0500003
0.049988
0.0499758
0.0499637
0.0499519
0.0499403
0.0499291
0.0499184
0.0499082
0.0498985
0.0498895
0.0498811
0.0498735
0.0498667
0.0498607
0.0498555
0.0498513
0.0498479
0.0498455
0.0498441
0.0498436
0.0752341
0.0752334
0.0752312
0.0752277
0.0752227
0.0752163
0.0752087
0.0751997
0.0751895
0.0751781
0.0751657
0.0751522
0.0751378
0.0751225
0.0751065
0.0750898
0.0750726
0.0750549
0.0750369
0.0750187
0.0750004
0.074982
0.0749638
0.0749458
0.0749281
0.0749109
0.0748943
0.0748782
0.074863
0.0748486
0.0748351
0.0748226
0.0748112
0.074801
0.0747921
0.0747844
0.074778
0.074773
0.0747695
0.0747673
0.0747666
0.10031
0.100309
0.100306
0.100301
0.100295
0.100286
0.100276
0.100264
0.100251
0.100236
0.100219
0.100201
0.100182
0.100162
0.100141
0.100119
0.100096
0.100073
0.100049
0.100025
0.1
0.0999762
0.0999521
0.0999283
0.0999049
0.0998821
0.09986
0.0998388
0.0998186
0.0997995
0.0997817
0.0997652
0.0997501
0.0997366
0.0997247
0.0997146
0.0997062
0.0996996
0.0996948
0.099692
0.099691
0.125384
0.125383
0.125379
0.125373
0.125365
0.125355
0.125342
0.125327
0.125311
0.125292
0.125272
0.125249
0.125226
0.125201
0.125175
0.125147
0.125119
0.12509
0.125061
0.125031
0.125001
0.124971
0.124941
0.124911
0.124882
0.124854
0.124827
0.1248
0.124775
0.124752
0.12473
0.124709
0.124691
0.124674
0.124659
0.124647
0.124636
0.124628
0.124622
0.124619
0.124617
0.150455
0.150454
0.15045
0.150443
0.150433
0.150421
0.150406
0.150388
0.150368
0.150346
0.150322
0.150296
0.150268
0.150238
0.150207
0.150175
0.150141
0.150107
0.150072
0.150036
0.150001
0.149965
0.14993
0.149895
0.14986
0.149827
0.149794
0.149763
0.149733
0.149705
0.149679
0.149655
0.149633
0.149613
0.149596
0.149581
0.149568
0.149559
0.149552
0.149547
0.149546
0.175524
0.175522
0.175517
0.175509
0.175498
0.175484
0.175467
0.175447
0.175424
0.175399
0.175371
0.175341
0.175308
0.175274
0.175238
0.175201
0.175162
0.175123
0.175083
0.175042
0.175001
0.17496
0.174919
0.174879
0.174839
0.174801
0.174763
0.174727
0.174693
0.174661
0.174631
0.174603
0.174577
0.174555
0.174534
0.174517
0.174503
0.174492
0.174484
0.174479
0.174477
0.200589
0.200588
0.200582
0.200573
0.200561
0.200545
0.200525
0.200503
0.200477
0.200448
0.200417
0.200383
0.200347
0.200308
0.200268
0.200226
0.200183
0.200138
0.200093
0.200047
0.200001
0.199955
0.199909
0.199863
0.199819
0.199776
0.199734
0.199693
0.199655
0.199618
0.199585
0.199553
0.199525
0.199499
0.199476
0.199457
0.199441
0.199428
0.199419
0.199414
0.199412
0.225651
0.225649
0.225643
0.225633
0.225619
0.225602
0.22558
0.225555
0.225527
0.225495
0.225461
0.225423
0.225383
0.225341
0.225296
0.22525
0.225202
0.225153
0.225103
0.225052
0.225001
0.22495
0.224899
0.224849
0.2248
0.224752
0.224706
0.224661
0.224619
0.224578
0.224541
0.224506
0.224475
0.224446
0.224421
0.2244
0.224382
0.224368
0.224358
0.224352
0.22435
0.250709
0.250707
0.2507
0.250689
0.250674
0.250655
0.250632
0.250605
0.250574
0.250539
0.250502
0.250461
0.250417
0.250371
0.250322
0.250272
0.25022
0.250166
0.250112
0.250056
0.250001
0.249945
0.24989
0.249836
0.249782
0.24973
0.249679
0.249631
0.249585
0.249541
0.2495
0.249462
0.249428
0.249397
0.24937
0.249347
0.249327
0.249312
0.249301
0.249295
0.249293
0.275762
0.27576
0.275753
0.275741
0.275725
0.275704
0.275679
0.27565
0.275617
0.27558
0.275539
0.275495
0.275448
0.275399
0.275347
0.275292
0.275236
0.275179
0.27512
0.275061
0.275001
0.274941
0.274882
0.274823
0.274766
0.274709
0.274655
0.274603
0.274553
0.274506
0.274462
0.274422
0.274385
0.274352
0.274322
0.274297
0.274277
0.27426
0.274249
0.274242
0.274239
0.300811
0.300808
0.300801
0.300789
0.300771
0.300749
0.300723
0.300692
0.300656
0.300617
0.300574
0.300527
0.300477
0.300424
0.300369
0.300311
0.300251
0.30019
0.300128
0.300064
0.300001
0.299937
0.299874
0.299812
0.29975
0.299691
0.299633
0.299577
0.299525
0.299475
0.299428
0.299385
0.299345
0.29931
0.299279
0.299252
0.29923
0.299213
0.299201
0.299193
0.299191
0.325855
0.325852
0.325844
0.325831
0.325813
0.32579
0.325761
0.325729
0.325692
0.32565
0.325605
0.325555
0.325503
0.325447
0.325388
0.325328
0.325265
0.3252
0.325134
0.325068
0.325001
0.324934
0.324867
0.324801
0.324737
0.324674
0.324613
0.324555
0.324499
0.324446
0.324397
0.324351
0.32431
0.324273
0.32424
0.324212
0.324189
0.32417
0.324157
0.324149
0.324147
0.350893
0.35089
0.350882
0.350868
0.350849
0.350825
0.350796
0.350761
0.350723
0.350679
0.350632
0.35058
0.350525
0.350467
0.350406
0.350342
0.350276
0.350209
0.35014
0.350071
0.350001
0.349931
0.349861
0.349792
0.349725
0.349659
0.349596
0.349534
0.349476
0.349421
0.34937
0.349322
0.349279
0.34924
0.349206
0.349176
0.349152
0.349133
0.349119
0.349111
0.349108
0.375926
0.375923
0.375914
0.3759
0.37588
0.375855
0.375825
0.375789
0.375749
0.375704
0.375655
0.375601
0.375544
0.375484
0.375421
0.375355
0.375287
0.375217
0.375145
0.375073
0.375001
0.374928
0.374856
0.374785
0.374715
0.374647
0.374581
0.374517
0.374457
0.3744
0.374346
0.374297
0.374252
0.374212
0.374176
0.374146
0.374121
0.374101
0.374087
0.374078
0.374075
0.400953
0.40095
0.400941
0.400927
0.400906
0.40088
0.400849
0.400813
0.400771
0.400725
0.400674
0.400619
0.40056
0.400498
0.400433
0.400365
0.400295
0.400223
0.400149
0.400075
0.400001
0.399926
0.399852
0.399778
0.399706
0.399636
0.399568
0.399503
0.399441
0.399382
0.399327
0.399276
0.39923
0.399188
0.399152
0.399121
0.399095
0.399074
0.39906
0.399051
0.399048
0.425974
0.425971
0.425962
0.425947
0.425926
0.4259
0.425868
0.425831
0.425788
0.425741
0.425689
0.425633
0.425573
0.425509
0.425442
0.425373
0.425301
0.425228
0.425153
0.425077
0.425
0.424924
0.424848
0.424773
0.424699
0.424628
0.424558
0.424492
0.424428
0.424368
0.424312
0.42426
0.424213
0.42417
0.424133
0.424101
0.424074
0.424054
0.424039
0.42403
0.424027
0.450989
0.450986
0.450977
0.450962
0.450941
0.450914
0.450882
0.450844
0.4508
0.450752
0.4507
0.450643
0.450582
0.450517
0.450449
0.450379
0.450306
0.450231
0.450155
0.450078
0.45
0.449923
0.449846
0.449769
0.449695
0.449622
0.449551
0.449483
0.449419
0.449358
0.449301
0.449248
0.4492
0.449157
0.449119
0.449086
0.44906
0.449038
0.449023
0.449014
0.449011
0.475998
0.475995
0.475986
0.475971
0.47595
0.475922
0.47589
0.475851
0.475808
0.475759
0.475706
0.475649
0.475587
0.475522
0.475453
0.475382
0.475309
0.475233
0.475156
0.475078
0.475
0.474922
0.474844
0.474767
0.474692
0.474618
0.474547
0.474478
0.474413
0.474352
0.474294
0.474241
0.474192
0.474149
0.474111
0.474078
0.474051
0.474029
0.474014
0.474005
0.474002
0.501001
0.500998
0.500989
0.500974
0.500952
0.500925
0.500892
0.500854
0.50081
0.500761
0.500708
0.50065
0.500589
0.500523
0.500455
0.500383
0.500309
0.500234
0.500157
0.500079
0.5
0.499921
0.499843
0.499766
0.499691
0.499617
0.499545
0.499477
0.499411
0.49935
0.499292
0.499239
0.49919
0.499146
0.499108
0.499075
0.499048
0.499026
0.499011
0.499002
0.498999
0.525998
0.525995
0.525986
0.525971
0.525949
0.525922
0.525889
0.525851
0.525808
0.525759
0.525706
0.525648
0.525587
0.525522
0.525453
0.525382
0.525308
0.525233
0.525156
0.525078
0.525
0.524922
0.524844
0.524767
0.524691
0.524618
0.524547
0.524478
0.524413
0.524351
0.524294
0.524241
0.524192
0.524149
0.52411
0.524078
0.52405
0.524029
0.524014
0.524005
0.524002
0.550989
0.550986
0.550977
0.550962
0.55094
0.550914
0.550881
0.550843
0.5508
0.550752
0.550699
0.550642
0.550581
0.550517
0.550449
0.550378
0.550305
0.550231
0.550154
0.550077
0.55
0.549922
0.549845
0.549769
0.549694
0.549621
0.549551
0.549483
0.549418
0.549357
0.5493
0.549248
0.5492
0.549156
0.549118
0.549086
0.549059
0.549038
0.549023
0.549014
0.549011
0.575973
0.57597
0.575961
0.575946
0.575926
0.575899
0.575867
0.57583
0.575787
0.57574
0.575688
0.575632
0.575572
0.575508
0.575442
0.575372
0.575301
0.575227
0.575152
0.575076
0.575
0.574923
0.574847
0.574772
0.574699
0.574627
0.574558
0.574491
0.574427
0.574367
0.574311
0.574259
0.574212
0.574169
0.574132
0.5741
0.574074
0.574053
0.574038
0.574029
0.574026
0.600952
0.600949
0.60094
0.600926
0.600905
0.600879
0.600848
0.600812
0.60077
0.600724
0.600673
0.600618
0.600559
0.600497
0.600432
0.600364
0.600294
0.600222
0.600148
0.600074
0.599999
0.599925
0.599851
0.599777
0.599705
0.599635
0.599567
0.599502
0.59944
0.599381
0.599326
0.599275
0.599229
0.599187
0.599151
0.59912
0.599094
0.599073
0.599059
0.59905
0.599047
0.625925
0.625922
0.625913
0.625899
0.625879
0.625854
0.625824
0.625788
0.625748
0.625703
0.625654
0.6256
0.625543
0.625483
0.625419
0.625353
0.625285
0.625215
0.625144
0.625072
0.624999
0.624927
0.624855
0.624783
0.624713
0.624645
0.624579
0.624516
0.624456
0.624399
0.624345
0.624296
0.624251
0.624211
0.624175
0.624145
0.62412
0.6241
0.624086
0.624077
0.624074
0.650892
0.650889
0.650881
0.650867
0.650848
0.650824
0.650794
0.65076
0.650721
0.650678
0.65063
0.650579
0.650524
0.650466
0.650404
0.650341
0.650275
0.650208
0.650139
0.650069
0.649999
0.649929
0.64986
0.649791
0.649724
0.649658
0.649594
0.649533
0.649475
0.64942
0.649368
0.649321
0.649277
0.649239
0.649204
0.649175
0.649151
0.649132
0.649118
0.64911
0.649107
0.675853
0.675851
0.675843
0.67583
0.675811
0.675788
0.67576
0.675727
0.67569
0.675649
0.675603
0.675554
0.675501
0.675445
0.675387
0.675326
0.675263
0.675199
0.675133
0.675066
0.674999
0.674932
0.674866
0.6748
0.674735
0.674672
0.674612
0.674553
0.674497
0.674445
0.674395
0.67435
0.674308
0.674271
0.674239
0.67421
0.674187
0.674169
0.674156
0.674148
0.674145
0.700809
0.700807
0.700799
0.700787
0.70077
0.700748
0.700721
0.70069
0.700655
0.700615
0.700572
0.700525
0.700475
0.700423
0.700367
0.700309
0.70025
0.700188
0.700126
0.700063
0.699999
0.699936
0.699872
0.69981
0.699749
0.699689
0.699631
0.699576
0.699523
0.699473
0.699426
0.699383
0.699344
0.699308
0.699277
0.699251
0.699229
0.699211
0.699199
0.699192
0.699189
0.725761
0.725758
0.725751
0.72574
0.725723
0.725703
0.725678
0.725648
0.725615
0.725578
0.725538
0.725494
0.725447
0.725397
0.725345
0.725291
0.725234
0.725177
0.725118
0.725059
0.724999
0.724939
0.72488
0.724821
0.724764
0.724708
0.724653
0.724601
0.724552
0.724505
0.724461
0.72442
0.724383
0.72435
0.724321
0.724296
0.724275
0.724259
0.724247
0.72424
0.724238
0.750707
0.750705
0.750699
0.750688
0.750673
0.750653
0.75063
0.750603
0.750572
0.750538
0.7505
0.750459
0.750415
0.750369
0.750321
0.75027
0.750218
0.750164
0.75011
0.750055
0.749999
0.749944
0.749888
0.749834
0.74978
0.749728
0.749678
0.749629
0.749583
0.749539
0.749498
0.749461
0.749426
0.749395
0.749368
0.749345
0.749326
0.749311
0.7493
0.749293
0.749291
0.77565
0.775648
0.775642
0.775632
0.775618
0.7756
0.775579
0.775554
0.775525
0.775494
0.775459
0.775422
0.775381
0.775339
0.775294
0.775248
0.7752
0.775151
0.775101
0.77505
0.774999
0.774948
0.774897
0.774847
0.774798
0.77475
0.774704
0.774659
0.774617
0.774577
0.774539
0.774505
0.774473
0.774445
0.77442
0.774398
0.774381
0.774367
0.774357
0.774351
0.774349
0.800588
0.800586
0.800581
0.800572
0.800559
0.800543
0.800524
0.800501
0.800475
0.800447
0.800415
0.800382
0.800345
0.800307
0.800266
0.800224
0.800181
0.800137
0.800091
0.800045
0.799999
0.799953
0.799907
0.799862
0.799817
0.799774
0.799732
0.799692
0.799653
0.799617
0.799583
0.799552
0.799523
0.799497
0.799475
0.799455
0.799439
0.799427
0.799418
0.799412
0.799411
0.825523
0.825521
0.825516
0.825508
0.825497
0.825483
0.825466
0.825445
0.825423
0.825397
0.825369
0.825339
0.825307
0.825273
0.825237
0.825199
0.825161
0.825121
0.825081
0.82504
0.824999
0.824958
0.824917
0.824877
0.824838
0.824799
0.824762
0.824726
0.824692
0.824659
0.824629
0.824601
0.824576
0.824553
0.824533
0.824516
0.824502
0.824491
0.824483
0.824478
0.824476
0.850454
0.850453
0.850448
0.850441
0.850432
0.850419
0.850404
0.850387
0.850367
0.850345
0.850321
0.850295
0.850267
0.850237
0.850206
0.850173
0.85014
0.850105
0.85007
0.850035
0.849999
0.849964
0.849928
0.849893
0.849859
0.849825
0.849793
0.849762
0.849732
0.849704
0.849678
0.849654
0.849632
0.849612
0.849594
0.849579
0.849567
0.849557
0.84955
0.849546
0.849545
0.875383
0.875381
0.875378
0.875372
0.875364
0.875353
0.875341
0.875326
0.875309
0.875291
0.87527
0.875248
0.875225
0.8752
0.875173
0.875146
0.875118
0.875089
0.875059
0.875029
0.874999
0.874969
0.874939
0.87491
0.874881
0.874853
0.874825
0.874799
0.874774
0.874751
0.874728
0.874708
0.874689
0.874673
0.874658
0.874645
0.874635
0.874627
0.874621
0.874617
0.874616
0.900309
0.900308
0.900305
0.9003
0.900294
0.900285
0.900275
0.900263
0.90025
0.900235
0.900218
0.9002
0.900181
0.900161
0.90014
0.900118
0.900095
0.900072
0.900048
0.900024
0.9
0.899975
0.899951
0.899927
0.899904
0.899881
0.899859
0.899838
0.899818
0.899799
0.899781
0.899764
0.899749
0.899736
0.899724
0.899714
0.899705
0.899699
0.899694
0.899691
0.89969
0.925233
0.925233
0.925231
0.925227
0.925222
0.925216
0.925208
0.925199
0.925189
0.925177
0.925165
0.925151
0.925137
0.925122
0.925106
0.925089
0.925072
0.925054
0.925036
0.925018
0.925
0.924981
0.924963
0.924945
0.924927
0.92491
0.924893
0.924877
0.924862
0.924848
0.924834
0.924822
0.924811
0.9248
0.924791
0.924784
0.924777
0.924772
0.924769
0.924767
0.924766
0.950156
0.950156
0.950154
0.950152
0.950149
0.950144
0.950139
0.950133
0.950126
0.950119
0.950111
0.950101
0.950092
0.950082
0.950071
0.95006
0.950048
0.950036
0.950024
0.950012
0.95
0.949987
0.949975
0.949963
0.949951
0.94994
0.949929
0.949918
0.949908
0.949898
0.949889
0.949881
0.949873
0.949866
0.94986
0.949855
0.949851
0.949847
0.949845
0.949844
0.949843
0.975078
0.975078
0.975077
0.975076
0.975075
0.975072
0.97507
0.975067
0.975063
0.97506
0.975055
0.975051
0.975046
0.975041
0.975036
0.97503
0.975024
0.975018
0.975012
0.975006
0.975
0.974994
0.974988
0.974982
0.974976
0.97497
0.974964
0.974959
0.974954
0.974949
0.974944
0.97494
0.974936
0.974933
0.97493
0.974927
0.974925
0.974923
0.974922
0.974922
0.974921
1
1
1
1
1
1
1
1
1
1
1
1
1
1
1
1
1
1
1
1
1
1
1
1
1
1
1
1
1
1
1
1
1
1
1
1
1
1
1
1
1
0
0.0249216
0.0498436
0.0747666
0.099691
0.124617
0.149546
0.174477
0.199412
0.22435
0.249293
0.274239
0.299191
0.324147
0.349108
0.374075
0.399048
0.424027
0.449011
0.474002
0.498999
0.524002
0.549011
0.574026
0.599047
0.624074
0.649107
0.674145
0.699189
0.724238
0.749291
0.774349
0.799411
0.824476
0.849545
0.874616
0.89969
0.924766
0.949843
0.974921
1
-8.17776e-20
0.0249218
0.0498441
0.0747673
0.099692
0.124619
0.149547
0.174479
0.199414
0.224352
0.249295
0.274242
0.299193
0.324149
0.349111
0.374078
0.399051
0.42403
0.449014
0.474005
0.499002
0.524005
0.549014
0.574029
0.59905
0.624077
0.64911
0.674148
0.699192
0.72424
0.749293
0.774351
0.799412
0.824478
0.849546
0.874617
0.899691
0.924767
0.949844
0.974922
1
0
0.0249225
0.0498455
0.0747695
0.0996948
0.124622
0.149552
0.174484
0.199419
0.224358
0.249301
0.274249
0.299201
0.324157
0.349119
0.374087
0.39906
0.424039
0.449023
0.474014
0.499011
0.524014
0.549023
0.574038
0.599059
0.624086
0.649118
0.674156
0.699199
0.724247
0.7493
0.774357
0.799418
0.824483
0.84955
0.874621
0.899694
0.924769
0.949845
0.974922
1
9.39072e-20
0.0249237
0.0498479
0.074773
0.0996996
0.124628
0.149559
0.174492
0.199428
0.224368
0.249312
0.27426
0.299213
0.32417
0.349133
0.374101
0.399074
0.424054
0.449038
0.474029
0.499026
0.524029
0.549038
0.574053
0.599073
0.6241
0.649132
0.674169
0.699211
0.724259
0.749311
0.774367
0.799427
0.824491
0.849557
0.874627
0.899699
0.924772
0.949847
0.974923
1
0
0.0249254
0.0498513
0.074778
0.0997062
0.124636
0.149568
0.174503
0.199441
0.224382
0.249327
0.274277
0.29923
0.324189
0.349152
0.374121
0.399095
0.424074
0.44906
0.474051
0.499048
0.52405
0.549059
0.574074
0.599094
0.62412
0.649151
0.674187
0.699229
0.724275
0.749326
0.774381
0.799439
0.824502
0.849567
0.874635
0.899705
0.924777
0.949851
0.974925
1
1.19541e-22
0.0249275
0.0498555
0.0747844
0.0997146
0.124647
0.149581
0.174517
0.199457
0.2244
0.249347
0.274297
0.299252
0.324212
0.349176
0.374146
0.399121
0.424101
0.449086
0.474078
0.499075
0.524078
0.549086
0.5741
0.59912
0.624145
0.649175
0.67421
0.699251
0.724296
0.749345
0.774398
0.799455
0.824516
0.849579
0.874645
0.899714
0.924784
0.949855
0.974927
1
1.07963e-19
0.0249301
0.0498607
0.0747921
0.0997247
0.124659
0.149596
0.174534
0.199476
0.224421
0.24937
0.274322
0.299279
0.32424
0.349206
0.374176
0.399152
0.424133
0.449119
0.474111
0.499108
0.52411
0.549118
0.574132
0.599151
0.624175
0.649204
0.674239
0.699277
0.724321
0.749368
0.77442
0.799475
0.824533
0.849594
0.874658
0.899724
0.924791
0.94986
0.97493
1
0
0.0249331
0.0498667
0.074801
0.0997366
0.124674
0.149613
0.174555
0.199499
0.224446
0.249397
0.274352
0.29931
0.324273
0.34924
0.374212
0.399188
0.42417
0.449157
0.474149
0.499146
0.524149
0.549156
0.574169
0.599187
0.624211
0.649239
0.674271
0.699308
0.72435
0.749395
0.774445
0.799497
0.824553
0.849612
0.874673
0.899736
0.9248
0.949866
0.974933
1
-1.12622e-19
0.0249366
0.0498735
0.0748112
0.0997501
0.124691
0.149633
0.174577
0.199525
0.224475
0.249428
0.274385
0.299345
0.32431
0.349279
0.374252
0.39923
0.424213
0.4492
0.474192
0.49919
0.524192
0.5492
0.574212
0.599229
0.624251
0.649277
0.674308
0.699344
0.724383
0.749426
0.774473
0.799523
0.824576
0.849632
0.874689
0.899749
0.924811
0.949873
0.974936
1
-1.15355e-19
0.0249404
0.0498811
0.0748226
0.0997652
0.124709
0.149655
0.174603
0.199553
0.224506
0.249462
0.274422
0.299385
0.324351
0.349322
0.374297
0.399276
0.42426
0.449248
0.474241
0.499239
0.524241
0.549248
0.574259
0.599275
0.624296
0.649321
0.67435
0.699383
0.72442
0.749461
0.774505
0.799552
0.824601
0.849654
0.874708
0.899764
0.924822
0.949881
0.97494
1
-2.41471e-19
0.0249446
0.0498895
0.0748351
0.0997817
0.12473
0.149679
0.174631
0.199585
0.224541
0.2495
0.274462
0.299428
0.324397
0.34937
0.374346
0.399327
0.424312
0.449301
0.474294
0.499292
0.524294
0.5493
0.574311
0.599326
0.624345
0.649368
0.674395
0.699426
0.724461
0.749498
0.774539
0.799583
0.824629
0.849678
0.874728
0.899781
0.924834
0.949889
0.974944
1
0
0.0249491
0.0498985
0.0748486
0.0997995
0.124752
0.149705
0.174661
0.199618
0.224578
0.249541
0.274506
0.299475
0.324446
0.349421
0.3744
0.399382
0.424368
0.449358
0.474352
0.49935
0.524351
0.549357
0.574367
0.599381
0.624399
0.64942
0.674445
0.699473
0.724505
0.749539
0.774577
0.799617
0.824659
0.849704
0.874751
0.899799
0.924848
0.949898
0.974949
1
-6.26051e-20
0.024954
0.0499082
0.074863
0.0998186
0.124775
0.149733
0.174693
0.199655
0.224619
0.249585
0.274553
0.299525
0.324499
0.349476
0.374457
0.399441
0.424428
0.449419
0.474413
0.499411
0.524413
0.549418
0.574427
0.59944
0.624456
0.649475
0.674497
0.699523
0.724552
0.749583
0.774617
0.799653
0.824692
0.849732
0.874774
0.899818
0.924862
0.949908
0.974954
1
0
0.0249591
0.0499184
0.0748782
0.0998388
0.1248
0.149763
0.174727
0.199693
0.224661
0.249631
0.274603
0.299577
0.324555
0.349534
0.374517
0.399503
0.424492
0.449483
0.474478
0.499477
0.524478
0.549483
0.574491
0.599502
0.624516
0.649533
0.674553
0.699576
0.724601
0.749629
0.774659
0.799692
0.824726
0.849762
0.874799
0.899838
0.924877
0.949918
0.974959
1
6.33525e-20
0.0249645
0.0499291
0.0748943
0.09986
0.124827
0.149794
0.174763
0.199734
0.224706
0.249679
0.274655
0.299633
0.324613
0.349596
0.374581
0.399568
0.424558
0.449551
0.474547
0.499545
0.524547
0.549551
0.574558
0.599567
0.624579
0.649594
0.674612
0.699631
0.724653
0.749678
0.774704
0.799732
0.824762
0.849793
0.874825
0.899859
0.924893
0.949929
0.974964
1
6.37425e-20
0.0249701
0.0499403
0.0749109
0.0998821
0.124854
0.149827
0.174801
0.199776
0.224752
0.24973
0.274709
0.299691
0.324674
0.349659
0.374647
0.399636
0.424628
0.449622
0.474618
0.499617
0.524618
0.549621
0.574627
0.599635
0.624645
0.649658
0.674672
0.699689
0.724708
0.749728
0.77475
0.799774
0.824799
0.849825
0.874853
0.899881
0.92491
0.94994
0.97497
1
0
0.0249759
0.0499519
0.0749281
0.0999049
0.124882
0.14986
0.174839
0.199819
0.2248
0.249782
0.274766
0.29975
0.324737
0.349725
0.374715
0.399706
0.424699
0.449695
0.474692
0.499691
0.524691
0.549694
0.574699
0.599705
0.624713
0.649724
0.674735
0.699749
0.724764
0.74978
0.774798
0.799817
0.824838
0.849859
0.874881
0.899904
0.924927
0.949951
0.974976
1
6.76156e-20
0.0249818
0.0499637
0.0749458
0.0999283
0.124911
0.149895
0.174879
0.199863
0.224849
0.249836
0.274823
0.299812
0.324801
0.349792
0.374785
0.399778
0.424773
0.449769
0.474767
0.499766
0.524767
0.549769
0.574772
0.599777
0.624783
0.649791
0.6748
0.69981
0.724821
0.749834
0.774847
0.799862
0.824877
0.849893
0.87491
0.899927
0.924945
0.949963
0.974982
1
0
0.0249878
0.0499758
0.0749638
0.0999521
0.124941
0.14993
0.174919
0.199909
0.224899
0.24989
0.274882
0.299874
0.324867
0.349861
0.374856
0.399852
0.424848
0.449846
0.474844
0.499843
0.524844
0.549845
0.574847
0.599851
0.624855
0.64986
0.674866
0.699872
0.72488
0.749888
0.774897
0.799907
0.824917
0.849928
0.874939
0.899951
0.924963
0.949975
0.974988
1
0
0.024994
0.049988
0.074982
0.0999762
0.124971
0.149965
0.17496
0.199955
0.22495
0.249945
0.274941
0.299937
0.324934
0.349931
0.374928
0.399926
0.424924
0.449923
0.474922
0.499921
0.524922
0.549922
0.574923
0.599925
0.624927
0.649929
0.674932
0.699936
0.724939
0.749944
0.774948
0.799953
0.824958
0.849964
0.874969
0.899975
0.924981
0.949987
0.974994
1
0
0.0250001
0.0500003
0.0750004
0.1
0.125001
0.150001
0.175001
0.200001
0.225001
0.250001
0.275001
0.300001
0.325001
0.350001
0.375001
0.400001
0.425
0.45
0.475
0.5
0.525
0.55
0.575
0.599999
0.624999
0.649999
0.674999
0.699999
0.724999
0.749999
0.774999
0.799999
0.824999
0.849999
0.874999
0.9
0.925
0.95
0.975
1
-6.89983e-20
0.0250063
0.0500126
0.0750187
0.100025
0.125031
0.150036
0.175042
0.200047
0.225052
0.250056
0.275061
0.300064
0.325068
0.350071
0.375073
0.400075
0.425077
0.450078
0.475078
0.500079
0.525078
0.550077
0.575076
0.600074
0.625072
0.650069
0.675066
0.700063
0.725059
0.750055
0.77505
0.800045
0.82504
0.850035
0.875029
0.900024
0.925018
0.950012
0.975006
1
6.36898e-20
0.0250124
0.0500248
0.0750369
0.100049
0.125061
0.150072
0.175083
0.200093
0.225103
0.250112
0.27512
0.300128
0.325134
0.35014
0.375145
0.400149
0.425153
0.450155
0.475156
0.500157
0.525156
0.550154
0.575152
0.600148
0.625144
0.650139
0.675133
0.700126
0.725118
0.75011
0.775101
0.800091
0.825081
0.85007
0.875059
0.900048
0.925036
0.950024
0.975012
1
-6.31078e-20
0.0250185
0.0500368
0.0750549
0.100073
0.12509
0.150107
0.175123
0.200138
0.225153
0.250166
0.275179
0.30019
0.3252
0.350209
0.375217
0.400223
0.425228
0.450231
0.475233
0.500234
0.525233
0.550231
0.575227
0.600222
0.625215
0.650208
0.675199
0.700188
0.725177
0.750164
0.775151
0.800137
0.825121
0.850105
0.875089
0.900072
0.925054
0.950036
0.975018
1
1.29065e-19
0.0250244
0.0500487
0.0750726
0.100096
0.125119
0.150141
0.175162
0.200183
0.225202
0.25022
0.275236
0.300251
0.325265
0.350276
0.375287
0.400295
0.425301
0.450306
0.475309
0.500309
0.525308
0.550305
0.575301
0.600294
0.625285
0.650275
0.675263
0.70025
0.725234
0.750218
0.7752
0.800181
0.825161
0.85014
0.875118
0.900095
0.925072
0.950048
0.975024
1
0
0.0250302
0.0500602
0.0750898
0.100119
0.125147
0.150175
0.175201
0.200226
0.22525
0.250272
0.275292
0.300311
0.325328
0.350342
0.375355
0.400365
0.425373
0.450379
0.475382
0.500383
0.525382
0.550378
0.575372
0.600364
0.625353
0.650341
0.675326
0.700309
0.725291
0.75027
0.775248
0.800224
0.825199
0.850173
0.875146
0.900118
0.925089
0.95006
0.97503
1
6.43672e-20
0.0250358
0.0500714
0.0751065
0.100141
0.125175
0.150207
0.175238
0.200268
0.225296
0.250322
0.275347
0.300369
0.325388
0.350406
0.375421
0.400433
0.425442
0.450449
0.475453
0.500455
0.525453
0.550449
0.575442
0.600432
0.625419
0.650404
0.675387
0.700367
0.725345
0.750321
0.775294
0.800266
0.825237
0.850206
0.875173
0.90014
0.925106
0.950071
0.975036
1
-6.30889e-20
0.0250412
0.0500821
0.0751225
0.100162
0.125201
0.150238
0.175274
0.200308
0.225341
0.250371
0.275399
0.300424
0.325447
0.350467
0.375484
0.400498
0.425509
0.450517
0.475522
0.500523
0.525522
0.550517
0.575508
0.600497
0.625483
0.650466
0.675445
0.700423
0.725397
0.750369
0.775339
0.800307
0.825273
0.850237
0.8752
0.900161
0.925122
0.950082
0.975041
1
0
0.0250463
0.0500923
0.0751378
0.100182
0.125226
0.150268
0.175308
0.200347
0.225383
0.250417
0.275448
0.300477
0.325503
0.350525
0.375544
0.40056
0.425573
0.450582
0.475587
0.500589
0.525587
0.550581
0.575572
0.600559
0.625543
0.650524
0.675501
0.700475
0.725447
0.750415
0.775381
0.800345
0.825307
0.850267
0.875225
0.900181
0.925137
0.950092
0.975046
1
5.79492e-20
0.0250511
0.050102
0.0751522
0.100201
0.125249
0.150296
0.175341
0.200383
0.225423
0.250461
0.275495
0.300527
0.325555
0.35058
0.375601
0.400619
0.425633
0.450643
0.475649
0.50065
0.525648
0.550642
0.575632
0.600618
0.6256
0.650579
0.675554
0.700525
0.725494
0.750459
0.775422
0.800382
0.825339
0.850295
0.875248
0.9002
0.925151
0.950101
0.975051
1
1.18085e-19
0.0250557
0.050111
0.0751657
0.100219
0.125272
0.150322
0.175371
0.200417
0.225461
0.250502
0.275539
0.300574
0.325605
0.350632
0.375655
0.400674
0.425689
0.4507
0.475706
0.500708
0.525706
0.550699
0.575688
0.600673
0.625654
0.65063
0.675603
0.700572
0.725538
0.7505
0.775459
0.800415
0.825369
0.850321
0.87527
0.900218
0.925165
0.950111
0.975055
1
1.15355e-19
0.0250599
0.0501194
0.0751781
0.100236
0.125292
0.150346
0.175399
0.200448
0.225495
0.250539
0.27558
0.300617
0.32565
0.350679
0.375704
0.400725
0.425741
0.450752
0.475759
0.500761
0.525759
0.550752
0.57574
0.600724
0.625703
0.650678
0.675649
0.700615
0.725578
0.750538
0.775494
0.800447
0.825397
0.850345
0.875291
0.900235
0.925177
0.950119
0.97506
1
2.23197e-19
0.0250637
0.050127
0.0751895
0.100251
0.125311
0.150368
0.175424
0.200477
0.225527
0.250574
0.275617
0.300656
0.325692
0.350723
0.375749
0.400771
0.425788
0.4508
0.475808
0.50081
0.525808
0.5508
0.575787
0.60077
0.625748
0.650721
0.67569
0.700655
0.725615
0.750572
0.775525
0.800475
0.825423
0.850367
0.875309
0.90025
0.925189
0.950126
0.975063
1
0
0.0250671
0.0501338
0.0751997
0.100264
0.125327
0.150388
0.175447
0.200503
0.225555
0.250605
0.27565
0.300692
0.325729
0.350761
0.375789
0.400813
0.425831
0.450844
0.475851
0.500854
0.525851
0.550843
0.57583
0.600812
0.625788
0.65076
0.675727
0.70069
0.725648
0.750603
0.775554
0.800501
0.825445
0.850387
0.875326
0.900263
0.925199
0.950133
0.975067
1
0
0.0250701
0.0501398
0.0752087
0.100276
0.125342
0.150406
0.175467
0.200525
0.22558
0.250632
0.275679
0.300723
0.325761
0.350796
0.375825
0.400849
0.425868
0.450882
0.47589
0.500892
0.525889
0.550881
0.575867
0.600848
0.625824
0.650794
0.67576
0.700721
0.725678
0.75063
0.775579
0.800524
0.825466
0.850404
0.875341
0.900275
0.925208
0.950139
0.97507
1
1.52034e-21
0.0250727
0.050145
0.0752163
0.100286
0.125355
0.150421
0.175484
0.200545
0.225602
0.250655
0.275704
0.300749
0.32579
0.350825
0.375855
0.40088
0.4259
0.450914
0.475922
0.500925
0.525922
0.550914
0.575899
0.600879
0.625854
0.650824
0.675788
0.700748
0.725703
0.750653
0.7756
0.800543
0.825483
0.850419
0.875353
0.900285
0.925216
0.950144
0.975072
1
-1.03385e-19
0.0250748
0.0501492
0.0752227
0.100295
0.125365
0.150433
0.175498
0.200561
0.225619
0.250674
0.275725
0.300771
0.325813
0.350849
0.37588
0.400906
0.425926
0.450941
0.47595
0.500952
0.525949
0.55094
0.575926
0.600905
0.625879
0.650848
0.675811
0.70077
0.725723
0.750673
0.775618
0.800559
0.825497
0.850432
0.875364
0.900294
0.925222
0.950149
0.975075
1
0
0.0250765
0.0501526
0.0752277
0.100301
0.125373
0.150443
0.175509
0.200573
0.225633
0.250689
0.275741
0.300789
0.325831
0.350868
0.3759
0.400927
0.425947
0.450962
0.475971
0.500974
0.525971
0.550962
0.575946
0.600926
0.625899
0.650867
0.67583
0.700787
0.72574
0.750688
0.775632
0.800572
0.825508
0.850441
0.875372
0.9003
0.925227
0.950152
0.975076
1
1.86048e-19
0.0250777
0.050155
0.0752312
0.100306
0.125379
0.15045
0.175517
0.200582
0.225643
0.2507
0.275753
0.300801
0.325844
0.350882
0.375914
0.400941
0.425962
0.450977
0.475986
0.500989
0.525986
0.550977
0.575961
0.60094
0.625913
0.650881
0.675843
0.700799
0.725751
0.750699
0.775642
0.800581
0.825516
0.850448
0.875378
0.900305
0.925231
0.950154
0.975077
1
0
0.0250785
0.0501564
0.0752334
0.100309
0.125383
0.150454
0.175522
0.200588
0.225649
0.250707
0.27576
0.300808
0.325852
0.35089
0.375923
0.40095
0.425971
0.450986
0.475995
0.500998
0.525995
0.550986
0.57597
0.600949
0.625922
0.650889
0.675851
0.700807
0.725758
0.750705
0.775648
0.800586
0.825521
0.850453
0.875381
0.900308
0.925233
0.950156
0.975078
1
0
0.0250787
0.0501569
0.0752341
0.10031
0.125384
0.150455
0.175524
0.200589
0.225651
0.250709
0.275762
0.300811
0.325855
0.350893
0.375926
0.400953
0.425974
0.450989
0.475998
0.501001
0.525998
0.550989
0.575973
0.600952
0.625925
0.650892
0.675853
0.700809
0.725761
0.750707
0.77565
0.800588
0.825523
0.850454
0.875383
0.900309
0.925233
0.950156
0.975078
1
3.74616
3.73091
3.70079
3.65653
3.5992
3.53022
3.45126
3.36425
3.27132
3.17475
3.07689
2.98015
2.8869
2.79942
2.71988
2.65021
2.59216
2.54714
2.51627
2.50033
2.49972
2.51446
2.5442
2.58823
2.64545
2.71448
2.79361
2.8809
2.97419
3.07118
3.16947
3.26663
3.36025
3.44802
3.52775
3.59747
3.65544
3.70023
3.73072
3.74616
3.73072
3.71548
3.68535
3.64109
3.58376
3.51478
3.43582
3.34881
3.25589
3.15932
3.06147
2.96473
2.87148
2.78402
2.70448