VARIABLES = X, Y
ZONE N = 121, E = 100, F = FEPOINT, ET = QUADRILATERAL
	0	0
	0	0.073323
	0	0.148343
	0	0.226817
	0	0.310599
	0	0.40161
	0	0.501691
	0	0.612233
	0	0.733539
	0	0.86406
	0	1
	0.13594	0
	0.138756	0.0769811
	0.12881	0.150326
	0.12217	0.228858
	0.113526	0.313562
	0.103655	0.405691
	0.0933615	0.506642
	0.0839138	0.617352
	0.076369	0.737131
	0.0768663	0.8612
	0.073323	1
	0.266461	0
	0.262886	0.0765393
	0.253882	0.157512
	0.241672	0.240329
	0.225388	0.327114
	0.206972	0.419627
	0.188228	0.519579
	0.171276	0.628308
	0.157499	0.74611
	0.150282	0.871176
	0.148343	1
	0.387767	0
	0.382625	0.0840337
	0.371679	0.171277
	0.354543	0.258551
	0.332302	0.348049
	0.307153	0.441221
	0.281599	0.539849
	0.258557	0.645439
	0.240341	0.758307
	0.228851	0.877815
	0.226817	1
	0.498309	0
	0.493357	0.0933269
	0.48042	0.188191
	0.460144	0.281581
	0.434043	0.374809
	0.404593	0.468941
	0.374824	0.565956
	0.348059	0.667689
	0.327127	0.774602
	0.31357	0.886469
	0.310599	1
	0.59839	0
	0.594321	0.103637
	0.580374	0.206951
	0.558778	0.307137
	0.531063	0.404578
	0.500011	0.499994
	0.468959	0.595409
	0.441237	0.692848
	0.419643	0.793031
	0.405708	0.896352
	0.40161	1
	0.689401	0
	0.68645	0.113495
	0.672888	0.225367
	0.651956	0.332283
	0.625199	0.434024
	0.595428	0.531044
	0.565975	0.62518
	0.539871	0.718408
	0.519599	0.811781
	0.506666	0.906651
	0.501691	1
	0.773183	0
	0.771163	0.122136
	0.759678	0.241662
	0.741461	0.354529
	0.718431	0.460128
	0.692867	0.55876
	0.667713	0.651939
	0.645467	0.741443
	0.628331	0.828725
	0.617384	0.916092
	0.612233	1
	0.851657	0
	0.849706	0.128773
	0.842505	0.253875
	0.82874	0.371668
	0.811822	0.480407
	0.793051	0.580358
	0.774625	0.67287
	0.758333	0.759656
	0.746135	0.842504
	0.737172	0.923636
	0.733539	1
	0.926677	0
	0.92303	0.138714
	0.923479	0.262863
	0.915984	0.382608
	0.906684	0.493345
	0.896365	0.594314
	0.886498	0.686448
	0.877856	0.771178
	0.871228	0.84976
	0.861247	0.923148
	0.86406	1
	1	0
	1	0.13594
	1	0.266461
	1	0.387767
	1	0.498309
	1	0.59839
	1	0.689401
	1	0.773183
	1	0.851657
	1	0.926677
	1	1
	1	12	13	2
	2	13	14	3
	3	14	15	4
	4	15	16	5
	5	16	17	6
	6	17	18	7
	7	18	19	8
	8	19	20	9
	9	20	21	10
	10	21	22	11
	12	23	24	13
	13	24	25	14
	14	25	26	15
	15	26	27	16
	16	27	28	17
	17	28	29	18
	18	29	30	19
	19	30	31	20
	20	31	32	21
	21	32	33	22
	23	34	35	24
	24	35	36	25
	25	36	37	26
	26	37	38	27
	27	38	39	28
	28	39	40	29
	29	40	41	30
	30	41	42	31
	31	42	43	32
	32	43	44	33
	34	45	46	35
	35	46	47	36
	36	47	48	37
	37	48	49	38
	38	49	50	39
	39	50	51	40
	40	51	52	41
	41	52	53	42
	42	53	54	43
	43	54	55	44
	45	56	57	46
	46	57	58	47
	47	58	59	48
	48	59	60	49
	49	60	61	50
	50	61	62	51
	51	62	63	52
	52	63	64	53
	53	64	65	54
	54	65	66	55
	56	67	68	57
	57	68	69	58
	58	69	70	59
	59	70	71	60
	60	71	72	61
	61	72	73	62
	62	73	74	63
	63	74	75	64
	64	75	76	65
	65	76	77	66
	67	78	79	68
	68	79	80	69
	69	80	81	70
	70	81	82	71
	71	82	83	72
	72	83	84	73
	73	84	85	74
	74	85	86	75
	75	86	87	76
	76	87	88	77
	78	89	90	79
	79	90	91	80
	80	91	92	81
	81	92	93	82
	82	93	94	83
	83	94	95	84
	84	95	96	85
	85	96	97	86
	86	97	98	87
	87	98	99	88
	89	100	101	90
	90	101	102	91
	91	102	103	92
	92	103	104	93
	93	104	105	94
	94	105	106	95
	95	106	107	96
	96	107	108	97
	97	108	109	98
	98	109	110	99
	100	111	112	101
	101	112	113	102
	102	113	114	103
	103	114	115	104
	104	115	116	105
	105	116	117	106
	106	117	118	107
	107	118	119	108
	108	119	120	109
	109	120	121	110
