VARIABLES = X, Y, P
ZONE N = 121, E = 100
ZONETYPE = FEQUADRILATERAL
DATAPACKING = BLOCK
varlocation=([3]=cellcentered)
0
0
0
0
0
0
0
0
0
0
0
0.13594
0.138756
0.12881
0.12217
0.113526
0.103655
0.0933615
0.0839138
0.076369
0.0768663
0.073323
0.266461
0.262886
0.253882
0.241672
0.225388
0.206972
0.188228
0.171276
0.157499
0.150282
0.148343
0.387767
0.382625
0.371679
0.354543
0.332302
0.307153
0.281599
0.258557
0.240341
0.228851
0.226817
0.498309
0.493357
0.48042
0.460144
0.434043
0.404593
0.374824
0.348059
0.327127
0.31357
0.310599
0.59839
0.594321
0.580374
0.558778
0.531063
0.500011
0.468959
0.441237
0.419643
0.405708
0.40161
0.689401
0.68645
0.672888
0.651956
0.625199
0.595428
0.565975
0.539871
0.519599
0.506666
0.501691
0.773183
0.771163
0.759678
0.741461
0.718431
0.692867
0.667713
0.645467
0.628331
0.617384
0.612233
0.851657
0.849706
0.842505
0.82874
0.811822
0.793051
0.774625
0.758333
0.746135
0.737172
0.733539
0.926677
0.92303
0.923479
0.915984
0.906684
0.896365
0.886498
0.877856
0.871228
0.861247
0.86406
1
1
1
1
1
1
1
1
1
1
1
0
0.073323
0.148343
0.226817
0.310599
0.40161
0.501691
0.612233
0.733539
0.86406
1
0
0.0769811
0.150326
0.228858
0.313562
0.405691
0.506642
0.617352
0.737131
0.8612
1
0
0.0765393
0.157512
0.240329
0.327114
0.419627
0.519579
0.628308
0.74611
0.871176
1
0
0.0840337
0.171277
0.258551
0.348049
0.441221
0.539849
0.645439
0.758307
0.877815
1
0
0.0933269
0.188191
0.281581
0.374809
0.468941
0.565956
0.667689
0.774602
0.886469
1
0
0.103637
0.206951
0.307137
0.404578
0.499994
0.595409
0.692848
0.793031
0.896352
1
0
0.113495
0.225367
0.332283
0.434024
0.531044
0.62518
0.718408
0.811781
0.906651
1
0
0.122136
0.241662
0.354529
0.460128
0.55876
0.651939
0.741443
0.828725
0.916092
1
0
0.128773
0.253875
0.371668
0.480407
0.580358
0.67287
0.759656
0.842504
0.923636
1
0
0.138714
0.262863
0.382608
0.493345
0.594314
0.686448
0.771178
0.84976
0.923148
1
0
0.13594
0.266461
0.387767
0.498309
0.59839
0.689401
0.773183
0.851657
0.926677
1
1.31599
1.42046
1.32984
1.20304
1.08298
1.00775
1.02165
1.15013
1.33375
1.31534
1.33226
1.29739
1.17902
1.06026
0.956605
0.901197
0.930688
1.06447
1.29649
1.41995
1.14895
1.06575
0.974328
0.866968
0.782423
0.757301
0.820434
0.974202
1.17872
1.3296
1.02105
0.931068
0.820368
0.699484
0.61891
0.613047
0.699498
0.866956
1.06015
1.20294
1.00778
0.90116
0.757216
0.613026
0.525493
0.525496
0.618898
0.782394
0.956536
1.08296
1.08309
0.956605
0.78239
0.61889
0.525486
0.52549
0.613026
0.757263
0.901135
1.00778
1.20316
1.06012
0.866934
0.699455
0.613013
0.618891
0.69948
0.820402
0.930637
1.02169
1.32999
1.17876
0.974281
0.820348
0.757208
0.782397
0.866971
0.974175
1.06442
1.15016
1.42079
1.29738
1.06574
0.931058
0.901145
0.956576
1.06006
1.1785
1.29657
1.33388
1.3162
1.33239
1.1491
1.02114
1.0078
1.08306
1.20307
1.32979
1.42038
1.3157
	1	12	13	2
	2	13	14	3
	3	14	15	4
	4	15	16	5
	5	16	17	6
	6	17	18	7
	7	18	19	8
	8	19	20	9
	9	20	21	10
	10	21	22	11
	12	23	24	13
	13	24	25	14
	14	25	26	15
	15	26	27	16
	16	27	28	17
	17	28	29	18
	18	29	30	19
	19	30	31	20
	20	31	32	21
	21	32	33	22
	23	34	35	24
	24	35	36	25
	25	36	37	26
	26	37	38	27
	27	38	39	28
	28	39	40	29
	29	40	41	30
	30	41	42	31
	31	42	43	32
	32	43	44	33
	34	45	46	35
	35	46	47	36
	36	47	48	37
	37	48	49	38
	38	49	50	39
	39	50	51	40
	40	51	52	41
	41	52	53	42
	42	53	54	43
	43	54	55	44
	45	56	57	46
	46	57	58	47
	47	58	59	48
	48	59	60	49
	49	60	61	50
	50	61	62	51
	51	62	63	52
	52	63	64	53
	53	64	65	54
	54	65	66	55
	56	67	68	57
	57	68	69	58
	58	69	70	59
	59	70	71	60
	60	71	72	61
	61	72	73	62
	62	73	74	63
	63	74	75	64
	64	75	76	65
	65	76	77	66
	67	78	79	68
	68	79	80	69
	69	80	81	70
	70	81	82	71
	71	82	83	72
	72	83	84	73
	73	84	85	74
	74	85	86	75
	75	86	87	76
	76	87	88	77
	78	89	90	79
	79	90	91	80
	80	91	92	81
	81	92	93	82
	82	93	94	83
	83	94	95	84
	84	95	96	85
	85	96	97	86
	86	97	98	87
	87	98	99	88
	89	100	101	90
	90	101	102	91
	91	102	103	92
	92	103	104	93
	93	104	105	94
	94	105	106	95
	95	106	107	96
	96	107	108	97
	97	108	109	98
	98	109	110	99
	100	111	112	101
	101	112	113	102
	102	113	114	103
	103	114	115	104
	104	115	116	105
	105	116	117	106
	106	117	118	107
	107	118	119	108
	108	119	120	109
	109	120	121	110
