VARIABLES = X, Y
ZONE N = 441, E = 400, F = FEPOINT, ET = QUADRILATERAL
	-0.576001	-0.576003
	-0.564148	-0.492021
	-0.543353	-0.415205
	-0.519888	-0.345307
	-0.495994	-0.280851
	-0.472747	-0.221816
	-0.45119	-0.168194
	-0.432509	-0.119737
	-0.417973	-0.0759726
	-0.408715	-0.0361803
	-0.406043	-2.13085e-007
	-0.408715	0.0361806
	-0.417973	0.0759727
	-0.432508	0.119737
	-0.451189	0.168194
	-0.472747	0.221816
	-0.495994	0.280851
	-0.519888	0.345307
	-0.543353	0.415205
	-0.564147	0.492022
	-0.576001	0.576003
	-0.49213	-0.564034
	-0.477055	-0.476907
	-0.453753	-0.400957
	-0.428715	-0.331045
	-0.403054	-0.26668
	-0.377725	-0.208101
	-0.353967	-0.155649
	-0.333376	-0.109321
	-0.317717	-0.0686604
	-0.308072	-0.0324267
	-0.305405	-6.79085e-006
	-0.30808	0.0324154
	-0.317727	0.0686592
	-0.33338	0.109323
	-0.353968	0.155649
	-0.377725	0.208101
	-0.403055	0.26668
	-0.428715	0.331045
	-0.453753	0.400957
	-0.477055	0.476907
	-0.492131	0.564033
	-0.415341	-0.543232
	-0.401059	-0.453664
	-0.3769	-0.376797
	-0.349845	-0.305653
	-0.321682	-0.24056
	-0.293765	-0.182478
	-0.269744	-0.133845
	-0.25339	-0.09369
	-0.245502	-0.0592953
	-0.24195	-0.0286108
	-0.242261	-4.781e-005
	-0.242055	0.0285402
	-0.245651	0.0592907
	-0.253473	0.0937251
	-0.269763	0.133869
	-0.293766	0.182484
	-0.321682	0.240561
	-0.349845	0.305653
	-0.3769	0.376797
	-0.401059	0.453664
	-0.415341	0.543232
	-0.345433	-0.519782
	-0.331162	-0.42862
	-0.30573	-0.349775
	-0.277229	-0.277041
	-0.247738	-0.211473
	-0.224569	-0.159376
	-0.21173	-0.119506
	-0.207658	-0.0871796
	-0.205575	-0.0569644
	-0.203598	-0.0281232
	-0.204676	-6.49129e-005
	-0.203754	0.0280429
	-0.205796	0.0569986
	-0.207821	0.0873074
	-0.211759	0.11961
	-0.224528	0.159393
	-0.247723	0.211471
	-0.277228	0.277042
	-0.305731	0.349774
	-0.331162	0.42862
	-0.345433	0.519782
	-0.280998	-0.495879
	-0.266797	-0.402966
	-0.240717	-0.321544
	-0.212163	-0.247026
	-0.190166	-0.188598
	-0.177836	-0.146705
	-0.173991	-0.115257
	-0.174111	-0.0864652
	-0.175078	-0.0578431
	-0.174849	-0.0289788
	-0.176466	-1.85692e-005
	-0.175036	0.0289828
	-0.175284	0.0579228
	-0.174162	0.0865649
	-0.173928	0.115318
	-0.17773	0.14672
	-0.190067	0.188558
	-0.21214	0.247014
	-0.240716	0.321544
	-0.266797	0.402966
	-0.280998	0.495879
	-0.221973	-0.472634
	-0.208269	-0.377603
	-0.183035	-0.293267
	-0.160758	-0.223002
	-0.14821	-0.176249
	-0.144438	-0.143022
	-0.144205	-0.114571
	-0.14566	-0.0871872
	-0.147506	-0.05921
	-0.148342	-0.0299716
	-0.150216	3.54067e-005
	-0.148505	0.0300382
	-0.147635	0.0592638
	-0.145656	0.0872063
	-0.144138	0.114576
	-0.14434	0.143014
	-0.148099	0.176199
	-0.160685	0.222923
	-0.183025	0.293261
	-0.208268	0.377604
	-0.221973	0.472634
	-0.168366	-0.451076
	-0.156055	-0.353684
	-0.135048	-0.268632
	-0.120987	-0.209838
	-0.116525	-0.172315
	-0.115659	-0.142863
	-0.116359	-0.115471
	-0.117997	-0.0881522
	-0.120277	-0.0601509
	-0.122001	-0.0306749
	-0.124321	4.44354e-005
	-0.122108	0.0307297
	-0.120351	0.060145
	-0.117978	0.08812
	-0.116312	0.11544
	-0.11558	0.142823
	-0.116431	0.172242
	-0.120909	0.209706
	-0.135013	0.268582
	-0.156053	0.353686
	-0.168367	0.451077
	-0.120005	-0.432349
	-0.110089	-0.332867
	-0.0952316	-0.251883
	-0.0886556	-0.20576
	-0.0875321	-0.172391
	-0.0878566	-0.144421
	-0.0885154	-0.117297
	-0.0901392	-0.0899657
	-0.0927869	-0.0616725
	-0.0951868	-0.0316503
	-0.0978027	2.33926e-005
	-0.095246	0.0316607
	-0.0928179	0.0616415
	-0.0901236	0.0899258
	-0.0884808	0.117253
	-0.0877897	0.144363
	-0.0874626	0.172304
	-0.0886074	0.205645
	-0.0952033	0.25178
	-0.110081	0.332862
	-0.120006	0.432352
	-0.0764352	-0.417723
	-0.0698252	-0.316969
	-0.0608406	-0.243929
	-0.058272	-0.203999
	-0.0586132	-0.173735
	-0.0594638	-0.14653
	-0.0600676	-0.119688
	-0.0614384	-0.092559
	-0.0642802	-0.0643233
	-0.0673136	-0.0335554
	-0.0699645	6.45594e-006
	-0.0673412	0.0335453
	-0.0642871	0.0642952
	-0.0614264	0.092521
	-0.0600348	0.119641
	-0.0594111	0.146471
	-0.0585713	0.173661
	-0.058253	0.20391
	-0.0608215	0.243802
	-0.069813	0.316948
	-0.076434	0.417726
	-0.0367255	-0.408391
	-0.0335277	-0.30721
	-0.0295495	-0.240784
	-0.0287688	-0.202677
	-0.0293291	-0.174015
	-0.0300161	-0.14747
	-0.030484	-0.121056
	-0.0313779	-0.0942357
	-0.0335541	-0.0663873
	-0.0366764	-0.0357744
	-0.0385864	-2.40394e-007
	-0.0366778	0.0357658
	-0.0335476	0.0663681
	-0.0313641	0.0942045
	-0.0304585	0.121016
	-0.0299862	0.147426
	-0.0293115	0.173966
	-0.028763	0.202608
	-0.0295398	0.240676
	-0.0335188	0.307172
	-0.0367248	0.408395
	4.33833e-007	-0.405296
	-1.71739e-005	-0.30391
	-0.000122673	-0.239759
	-0.000178699	-0.201995
	-9.84561e-005	-0.173855
	2.66434e-005	-0.147654
	5.86623e-005	-0.121608
	-2.13272e-006	-0.0950287
	-8.10657e-005	-0.0674407
	-0.000158521	-0.0370906
	-0.000181944	-2.20181e-006
	-0.000146481	0.0370816
	-6.49381e-005	0.0674241
	1.40126e-005	0.0950021
	6.92722e-005	0.121576
	3.01895e-005	0.147622
	-9.86537e-005	0.173816
	-0.000178234	0.201931
	-0.000121439	0.239659
	-1.6642e-005	0.303865
	4.20938e-007	0.4053
	0.0367264	-0.40839
	0.0335057	-0.307228
	0.0293645	-0.24101
	0.028507	-0.202991
	0.0292266	-0.174407
	0.030094	-0.147857
	0.030561	-0.121368
	0.0313177	-0.09445
	0.0333398	-0.0665193
	0.0363157	-0.0358419
	0.0381781	-2.55738e-008
	0.0363419	0.0358309
	0.0333648	0.0664974
	0.0313359	0.0944186
	0.0305587	0.121328
	0.0300727	0.14781
	0.0292071	0.174354
	0.0284997	0.202918
	0.0293559	0.240899
	0.0334976	0.30719
	0.0367256	0.408394
	0.0764362	-0.417721
	0.0698242	-0.316987
	0.0607944	-0.244267
	0.0582467	-0.204468
	0.0587188	-0.174237
	0.0595871	-0.146946
	0.0600633	-0.120016
	0.061277	-0.0927881
	0.0639739	-0.0644652
	0.066861	-0.0336304
	0.0694845	6.68315e-006
	0.0669181	0.0336174
	0.0640102	0.0644339
	0.0612974	0.0927491
	0.060057	0.11997
	0.0595467	0.146889
	0.0586734	0.174163
	0.0582213	0.204377
	0.0607738	0.244136
	0.0698119	0.316966
	0.0764349	0.417725
	0.120004	-0.432348
	0.110093	-0.332874
	0.0952861	-0.252114
	0.0888615	-0.206204
	0.0877752	-0.172688
	0.087981	-0.144611
	0.0884595	-0.117423
	0.0899115	-0.0900583
	0.0923967	-0.0617279
	0.0946612	-0.0316734
	0.0972686	2.16974e-005
	0.0947509	0.0316814
	0.0924629	0.061692
	0.0899317	0.0900128
	0.0884526	0.117381
	0.0879309	0.144561
	0.0877051	0.172609
	0.0888046	0.20609
	0.0952553	0.252007
	0.110085	0.332869
	0.120005	0.43235
	0.168365	-0.451076
	0.156056	-0.353685
	0.135104	-0.268717
	0.121248	-0.210105
	0.116776	-0.172341
	0.115763	-0.142805
	0.116279	-0.115402
	0.117716	-0.0880793
	0.119815	-0.0600636
	0.12143	-0.0306099
	0.123743	3.3515e-005
	0.121569	0.0306495
	0.119929	0.0600519
	0.117741	0.0880404
	0.116262	0.115369
	0.115704	0.142776
	0.116688	0.172283
	0.121164	0.209978
	0.135068	0.268667
	0.156053	0.353686
	0.168366	0.451076
	0.221973	-0.472634
	0.208267	-0.377602
	0.183043	-0.293277
	0.160875	-0.223062
	0.148356	-0.176089
	0.144492	-0.14278
	0.144079	-0.114296
	0.145308	-0.0868992
	0.146985	-0.0589583
	0.147757	-0.0298307
	0.149645	2.01556e-005
	0.147937	0.0298754
	0.147155	0.059002
	0.145352	0.0869172
	0.144046	0.114302
	0.144418	0.142782
	0.148262	0.176062
	0.160798	0.222989
	0.183034	0.29327
	0.208267	0.377603
	0.221973	0.472634
	0.280998	-0.495879
	0.266797	-0.402966
	0.240717	-0.321544
	0.212169	-0.247025
	0.190146	-0.188445
	0.177772	-0.146389
	0.173747	-0.114854
	0.173646	-0.0860748
	0.174495	-0.0575553
	0.174256	-0.0288434
	0.175912	-3.45126e-005
	0.174451	0.0288172
	0.174732	0.0576137
	0.173737	0.086171
	0.173707	0.114922
	0.177691	0.146412
	0.190064	0.188415
	0.212147	0.247017
	0.240715	0.321545
	0.266797	0.402966
	0.280998	0.495879
	0.345433	-0.519782
	0.331162	-0.42862
	0.305731	-0.349775
	0.277231	-0.277043
	0.247698	-0.211435
	0.224332	-0.159155
	0.21124	-0.119145
	0.207068	-0.0868589
	0.204976	-0.0567697
	0.203004	-0.0280435
	0.204098	-7.46551e-005
	0.203161	0.0279413
	0.205207	0.0567808
	0.207256	0.0869736
	0.211297	0.119253
	0.224309	0.15918
	0.24769	0.211435
	0.277231	0.277046
	0.305731	0.349775
	0.331162	0.42862
	0.345433	0.519782
	0.415341	-0.543232
	0.401059	-0.453664
	0.3769	-0.376797
	0.349845	-0.305653
	0.32168	-0.240561
	0.29373	-0.182465
	0.269549	-0.133739
	0.252956	-0.0935615
	0.244882	-0.0591856
	0.241319	-0.0285549
	0.241646	-5.05285e-005
	0.241424	0.0284777
	0.245032	0.059174
	0.253045	0.0935919
	0.269573	0.133763
	0.293732	0.18247
	0.32168	0.240562
	0.349845	0.305654
	0.3769	0.376797
	0.401059	0.453664
	0.41534	0.543232
	0.49213	-0.564034
	0.477055	-0.476907
	0.453753	-0.400957
	0.428715	-0.331045
	0.403055	-0.26668
	0.377726	-0.208104
	0.353962	-0.155653
	0.333343	-0.109315
	0.317623	-0.0686375
	0.307914	-0.032406
	0.305208	-6.58442e-006
	0.307922	0.0323947
	0.317633	0.068636
	0.333347	0.109316
	0.353963	0.155653
	0.377726	0.208104
	0.403055	0.26668
	0.428715	0.331045
	0.453753	0.400957
	0.477055	0.476907
	0.49213	0.564033
	0.576001	-0.576003
	0.564147	-0.492022
	0.543353	-0.415205
	0.519888	-0.345307
	0.495994	-0.280851
	0.472748	-0.221817
	0.451193	-0.1682
	0.432514	-0.119749
	0.417977	-0.0759861
	0.408718	-0.0361953
	0.406036	-2.18182e-007
	0.408718	0.0361956
	0.417977	0.0759862
	0.432513	0.119749
	0.451192	0.168199
	0.472748	0.221817
	0.495993	0.280851
	0.519888	0.345307
	0.543353	0.415205
	0.564147	0.492022
	0.576001	0.576003
	1	22	23	2
	2	23	24	3
	3	24	25	4
	4	25	26	5
	5	26	27	6
	6	27	28	7
	7	28	29	8
	8	29	30	9
	9	30	31	10
	10	31	32	11
	11	32	33	12
	12	33	34	13
	13	34	35	14
	14	35	36	15
	15	36	37	16
	16	37	38	17
	17	38	39	18
	18	39	40	19
	19	40	41	20
	20	41	42	21
	22	43	44	23
	23	44	45	24
	24	45	46	25
	25	46	47	26
	26	47	48	27
	27	48	49	28
	28	49	50	29
	29	50	51	30
	30	51	52	31
	31	52	53	32
	32	53	54	33
	33	54	55	34
	34	55	56	35
	35	56	57	36
	36	57	58	37
	37	58	59	38
	38	59	60	39
	39	60	61	40
	40	61	62	41
	41	62	63	42
	43	64	65	44
	44	65	66	45
	45	66	67	46
	46	67	68	47
	47	68	69	48
	48	69	70	49
	49	70	71	50
	50	71	72	51
	51	72	73	52
	52	73	74	53
	53	74	75	54
	54	75	76	55
	55	76	77	56
	56	77	78	57
	57	78	79	58
	58	79	80	59
	59	80	81	60
	60	81	82	61
	61	82	83	62
	62	83	84	63
	64	85	86	65
	65	86	87	66
	66	87	88	67
	67	88	89	68
	68	89	90	69
	69	90	91	70
	70	91	92	71
	71	92	93	72
	72	93	94	73
	73	94	95	74
	74	95	96	75
	75	96	97	76
	76	97	98	77
	77	98	99	78
	78	99	100	79
	79	100	101	80
	80	101	102	81
	81	102	103	82
	82	103	104	83
	83	104	105	84
	85	106	107	86
	86	107	108	87
	87	108	109	88
	88	109	110	89
	89	110	111	90
	90	111	112	91
	91	112	113	92
	92	113	114	93
	93	114	115	94
	94	115	116	95
	95	116	117	96
	96	117	118	97
	97	118	119	98
	98	119	120	99
	99	120	121	100
	100	121	122	101
	101	122	123	102
	102	123	124	103
	103	124	125	104
	104	125	126	105
	106	127	128	107
	107	128	129	108
	108	129	130	109
	109	130	131	110
	110	131	132	111
	111	132	133	112
	112	133	134	113
	113	134	135	114
	114	135	136	115
	115	136	137	116
	116	137	138	117
	117	138	139	118
	118	139	140	119
	119	140	141	120
	120	141	142	121
	121	142	143	122
	122	143	144	123
	123	144	145	124
	124	145	146	125
	125	146	147	126
	127	148	149	128
	128	149	150	129
	129	150	151	130
	130	151	152	131
	131	152	153	132
	132	153	154	133
	133	154	155	134
	134	155	156	135
	135	156	157	136
	136	157	158	137
	137	158	159	138
	138	159	160	139
	139	160	161	140
	140	161	162	141
	141	162	163	142
	142	163	164	143
	143	164	165	144
	144	165	166	145
	145	166	167	146
	146	167	168	147
	148	169	170	149
	149	170	171	150
	150	171	172	151
	151	172	173	152
	152	173	174	153
	153	174	175	154
	154	175	176	155
	155	176	177	156
	156	177	178	157
	157	178	179	158
	158	179	180	159
	159	180	181	160
	160	181	182	161
	161	182	183	162
	162	183	184	163
	163	184	185	164
	164	185	186	165
	165	186	187	166
	166	187	188	167
	167	188	189	168
	169	190	191	170
	170	191	192	171
	171	192	193	172
	172	193	194	173
	173	194	195	174
	174	195	196	175
	175	196	197	176
	176	197	198	177
	177	198	199	178
	178	199	200	179
	179	200	201	180
	180	201	202	181
	181	202	203	182
	182	203	204	183
	183	204	205	184
	184	205	206	185
	185	206	207	186
	186	207	208	187
	187	208	209	188
	188	209	210	189
	190	211	212	191
	191	212	213	192
	192	213	214	193
	193	214	215	194
	194	215	216	195
	195	216	217	196
	196	217	218	197
	197	218	219	198
	198	219	220	199
	199	220	221	200
	200	221	222	201
	201	222	223	202
	202	223	224	203
	203	224	225	204
	204	225	226	205
	205	226	227	206
	206	227	228	207
	207	228	229	208
	208	229	230	209
	209	230	231	210
	211	232	233	212
	212	233	234	213
	213	234	235	214
	214	235	236	215
	215	236	237	216
	216	237	238	217
	217	238	239	218
	218	239	240	219
	219	240	241	220
	220	241	242	221
	221	242	243	222
	222	243	244	223
	223	244	245	224
	224	245	246	225
	225	246	247	226
	226	247	248	227
	227	248	249	228
	228	249	250	229
	229	250	251	230
	230	251	252	231
	232	253	254	233
	233	254	255	234
	234	255	256	235
	235	256	257	236
	236	257	258	237
	237	258	259	238
	238	259	260	239
	239	260	261	240
	240	261	262	241
	241	262	263	242
	242	263	264	243
	243	264	265	244
	244	265	266	245
	245	266	267	246
	246	267	268	247
	247	268	269	248
	248	269	270	249
	249	270	271	250
	250	271	272	251
	251	272	273	252
	253	274	275	254
	254	275	276	255
	255	276	277	256
	256	277	278	257
	257	278	279	258
	258	279	280	259
	259	280	281	260
	260	281	282	261
	261	282	283	262
	262	283	284	263
	263	284	285	264
	264	285	286	265
	265	286	287	266
	266	287	288	267
	267	288	289	268
	268	289	290	269
	269	290	291	270
	270	291	292	271
	271	292	293	272
	272	293	294	273
	274	295	296	275
	275	296	297	276
	276	297	298	277
	277	298	299	278
	278	299	300	279
	279	300	301	280
	280	301	302	281
	281	302	303	282
	282	303	304	283
	283	304	305	284
	284	305	306	285
	285	306	307	286
	286	307	308	287
	287	308	309	288
	288	309	310	289
	289	310	311	290
	290	311	312	291
	291	312	313	292
	292	313	314	293
	293	314	315	294
	295	316	317	296
	296	317	318	297
	297	318	319	298
	298	319	320	299
	299	320	321	300
	300	321	322	301
	301	322	323	302
	302	323	324	303
	303	324	325	304
	304	325	326	305
	305	326	327	306
	306	327	328	307
	307	328	329	308
	308	329	330	309
	309	330	331	310
	310	331	332	311
	311	332	333	312
	312	333	334	313
	313	334	335	314
	314	335	336	315
	316	337	338	317
	317	338	339	318
	318	339	340	319
	319	340	341	320
	320	341	342	321
	321	342	343	322
	322	343	344	323
	323	344	345	324
	324	345	346	325
	325	346	347	326
	326	347	348	327
	327	348	349	328
	328	349	350	329
	329	350	351	330
	330	351	352	331
	331	352	353	332
	332	353	354	333
	333	354	355	334
	334	355	356	335
	335	356	357	336
	337	358	359	338
	338	359	360	339
	339	360	361	340
	340	361	362	341
	341	362	363	342
	342	363	364	343
	343	364	365	344
	344	365	366	345
	345	366	367	346
	346	367	368	347
	347	368	369	348
	348	369	370	349
	349	370	371	350
	350	371	372	351
	351	372	373	352
	352	373	374	353
	353	374	375	354
	354	375	376	355
	355	376	377	356
	356	377	378	357
	358	379	380	359
	359	380	381	360
	360	381	382	361
	361	382	383	362
	362	383	384	363
	363	384	385	364
	364	385	386	365
	365	386	387	366
	366	387	388	367
	367	388	389	368
	368	389	390	369
	369	390	391	370
	370	391	392	371
	371	392	393	372
	372	393	394	373
	373	394	395	374
	374	395	396	375
	375	396	397	376
	376	397	398	377
	377	398	399	378
	379	400	401	380
	380	401	402	381
	381	402	403	382
	382	403	404	383
	383	404	405	384
	384	405	406	385
	385	406	407	386
	386	407	408	387
	387	408	409	388
	388	409	410	389
	389	410	411	390
	390	411	412	391
	391	412	413	392
	392	413	414	393
	393	414	415	394
	394	415	416	395
	395	416	417	396
	396	417	418	397
	397	418	419	398
	398	419	420	399
	400	421	422	401
	401	422	423	402
	402	423	424	403
	403	424	425	404
	404	425	426	405
	405	426	427	406
	406	427	428	407
	407	428	429	408
	408	429	430	409
	409	430	431	410
	410	431	432	411
	411	432	433	412
	412	433	434	413
	413	434	435	414
	414	435	436	415
	415	436	437	416
	416	437	438	417
	417	438	439	418
	418	439	440	419
	419	440	441	420
