VARIABLES = X, Y, P
ZONE N = 121, E = 100
ZONETYPE = FEQUADRILATERAL
DATAPACKING = BLOCK
varlocation=([3]=cellcentered)
0
0.201838
0.200806
0.200806
0.201769
-0.000956717
0.0421815
0.128902
0.0285014
0.102215
0
0.0910125
0.095762
0.776618
0.776618
0.0872189
-0.106221
0.0864569
1.1781
0.0829071
-67.0962
0.0916062
0.17742
-2.96931
0.18
0.18
0.18
0.18
0.18
0.18
0.18
0.371695
0.181866
0.3187
0.266534
0.27
0.27
0.27
0.27
0.27
0.27
0.27
0.265405
0.272608
0.36
0.36
0.36
0.36
0.36
0.36
0.36
0.36
0.36
0.36
0.36
0.45
0.45
0.45
0.45
0.45
0.45
0.45
0.45
0.45
0.454037
0.448863
0.4913
0.543466
0.54
0.54
0.54
0.54
0.54
0.54
0.54
-2.60931
0.53742
0.63
0.63
0.63
0.63
0.63
0.63
0.63
0.63
0.63
0.626534
0.6787
0.72
0.72
0.72
0.72
0.72
0.72
0.72
0.72
0.72
0.723466
0.6713
0.807563
13.4529
0.809057
-3.61256
-3.61256
0.812929
0.812929
-2.65485
0.813543
3.83338
0.80742
1
0.90118
0.697927
0.799206
0.799206
0.698503
0.698503
0.799199
0.857818
0.902644
1
0
0.0942275
0.18
0.27
0.355945
0.448551
0.4913
0.63
0.72
0.807674
1
0.202209
0.0736455
0.18
0.27
0.373563
0.253924
0.543466
0.63
0.72
68.0153
0.798493
0.100801
3.55485
0.18
0.27
0.36
0.45
0.54
0.63
0.72
1.00898
0.900957
0.0421815
0.0864569
0.18
0.27
0.36
0.45
0.54
0.63
0.72
0.810226
0.698064
0.0937446
0.09
0.18
0.27
0.36
0.45
0.54
0.63
0.72
-0.737204
0.750267
0.0937446
0.09
0.18
0.27
0.36
0.45
0.54
0.63
0.72
0.810533
0.698258
0.0421815
0.0864569
0.18
0.27
0.36
0.45
0.54
0.63
0.72
-2.65485
0.799199
0.128902
1.1781
0.18
0.27
0.36
0.45
0.54
0.63
0.72
0.813543
0.857818
0.0285014
0.0829071
0.18
0.27
0.36
0.45
0.54
0.63
0.72
0.813543
0.857818
0.101772
14.8974
0.179854
-3.62896
4.25896
0.437557
0.552443
-2.51931
0.716534
-2.76626
0.799746
0
0.0916563
0.181546
0.2667
0.3633
0.45286
0.53714
0.62742
0.7687
0.805666
1
-0.0100597
-0.0164245
-0.0190236
-0.0171983
0.0440532
0.0605222
-0.0430966
-0.0402872
6.25886
30.2147
-0.379802
-0.176607
-0.0296857
-0.0298312
0.0339613
0.0103417
-0.0543385
-0.0522666
1.28807
1.36425
-0.407388
11.041
-0.000898558
-0.000898558
-0.000898558
-0.000898558
-0.000898558
-0.000898558
0.0264047
0.0380453
-0.00546417
-0.000709161
-0.000898558
-0.000898558
-0.000898558
-0.000898558
-0.000898558
-0.000898558
-0.067941
-0.0492061
0.0187476
-0.000898558
-0.000898558
-0.000898558
-0.000898558
-0.000898558
-0.000898558
-0.000898558
-0.0683834
-0.0495254
-0.00546417
-0.000709161
-0.000898558
-0.000898558
-0.000898558
-0.000898558
-0.000898558
-0.000898558
-0.209758
-0.431132
-0.0430966
-0.0543385
-0.000898558
-0.000898558
-0.000898558
-0.000898558
-0.000898558
-0.000898558
11.041
-0.407388
-0.0402872
-0.0522666
-0.000898558
-0.000898558
-0.000898558
-0.000898558
-0.000898558
-0.000898558
-0.0005327
-0.00830206
-1.75754
-27.4411
-0.259285
-0.0111082
-0.274235
-0.00010889
-0.217837
11.041
-10.0658
-0.413306
-1.26731
-0.793381
-0.498962
-0.00973154
-0.552079
-0.0114524
-0.461962
-0.407388
-0.204591
-0.326712
	1	12	13	2
	2	13	14	3
	3	14	15	4
	4	15	16	5
	5	16	17	6
	6	17	18	7
	7	18	19	8
	8	19	20	9
	9	20	21	10
	10	21	22	11
	12	23	24	13
	13	24	25	14
	14	25	26	15
	15	26	27	16
	16	27	28	17
	17	28	29	18
	18	29	30	19
	19	30	31	20
	20	31	32	21
	21	32	33	22
	23	34	35	24
	24	35	36	25
	25	36	37	26
	26	37	38	27
	27	38	39	28
	28	39	40	29
	29	40	41	30
	30	41	42	31
	31	42	43	32
	32	43	44	33
	34	45	46	35
	35	46	47	36
	36	47	48	37
	37	48	49	38
	38	49	50	39
	39	50	51	40
	40	51	52	41
	41	52	53	42
	42	53	54	43
	43	54	55	44
	45	56	57	46
	46	57	58	47
	47	58	59	48
	48	59	60	49
	49	60	61	50
	50	61	62	51
	51	62	63	52
	52	63	64	53
	53	64	65	54
	54	65	66	55
	56	67	68	57
	57	68	69	58
	58	69	70	59
	59	70	71	60
	60	71	72	61
	61	72	73	62
	62	73	74	63
	63	74	75	64
	64	75	76	65
	65	76	77	66
	67	78	79	68
	68	79	80	69
	69	80	81	70
	70	81	82	71
	71	82	83	72
	72	83	84	73
	73	84	85	74
	74	85	86	75
	75	86	87	76
	76	87	88	77
	78	89	90	79
	79	90	91	80
	80	91	92	81
	81	92	93	82
	82	93	94	83
	83	94	95	84
	84	95	96	85
	85	96	97	86
	86	97	98	87
	87	98	99	88
	89	100	101	90
	90	101	102	91
	91	102	103	92
	92	103	104	93
	93	104	105	94
	94	105	106	95
	95	106	107	96
	96	107	108	97
	97	108	109	98
	98	109	110	99
	100	111	112	101
	101	112	113	102
	102	113	114	103
	103	114	115	104
	104	115	116	105
	105	116	117	106
	106	117	118	107
	107	118	119	108
	108	119	120	109
	109	120	121	110
