VARIABLES = X, Y, P
ZONE N = 441, E = 400
ZONETYPE = FEQUADRILATERAL
DATAPACKING = BLOCK
varlocation=([3]=cellcentered)
0
0
0
0
0
0
0
0
0
0
0
0
0
0
0
0
0
0
0
0
0
0.02
0.0199823
0.0199805
0.019987
0.0199937
0.0199947
0.0199923
0.01999
0.0199893
0.01999
0.019991
0.0199926
0.0199943
0.0199965
0.0199983
0.0200004
0.0200018
0.0200033
0.0200037
0.0200023
0.02
0.04
0.0399681
0.0399607
0.0399707
0.0399826
0.0399862
0.0399823
0.0399782
0.039977
0.0399783
0.0399813
0.0399849
0.0399899
0.0399949
0.0400004
0.0400047
0.0400089
0.0400114
0.0400128
0.0400099
0.04
0.06
0.0599626
0.0599487
0.0599583
0.0599734
0.0599791
0.0599757
0.0599715
0.0599705
0.0599725
0.0599763
0.0599821
0.0599887
0.0599966
0.0600035
0.06001
0.0600139
0.0600164
0.0600155
0.0600116
0.06
0.08
0.0799643
0.0799452
0.0799516
0.0799665
0.0799738
0.0799716
0.0799696
0.079971
0.0799749
0.0799802
0.079986
0.0799934
0.0800007
0.080008
0.0800129
0.0800159
0.080015
0.0800124
0.0800066
0.08
0.1
0.0999681
0.0999474
0.0999492
0.0999625
0.0999686
0.099968
0.0999686
0.0999742
0.0999818
0.0999892
0.099996
0.100002
0.100007
0.100011
0.100014
0.100014
0.100011
0.100006
0.100001
0.1
0.12
0.119973
0.119953
0.119953
0.119962
0.119967
0.119966
0.119969
0.119977
0.119989
0.119999
0.120006
0.120011
0.120013
0.120013
0.120011
0.120009
0.120005
0.120001
0.119998
0.12
0.14
0.139979
0.139962
0.139961
0.139968
0.13997
0.139969
0.139971
0.139981
0.139994
0.140005
0.140013
0.140016
0.140015
0.140011
0.140006
0.140002
0.14
0.139998
0.139999
0.14
0.16
0.159985
0.159973
0.159972
0.159977
0.159977
0.159975
0.159978
0.159986
0.159997
0.160007
0.160014
0.160015
0.160013
0.160007
0.160002
0.159998
0.159997
0.159999
0.16
0.16
0.18
0.179992
0.179986
0.179985
0.179988
0.179987
0.179987
0.179988
0.179993
0.179999
0.180005
0.180008
0.18001
0.180007
0.180004
0.18
0.179998
0.179998
0.18
0.180001
0.18
0.2
0.2
0.2
0.2
0.2
0.2
0.2
0.2
0.2
0.2
0.2
0.2
0.2
0.2
0.2
0.2
0.2
0.2
0.2
0.2
0.2
0.22
0.220008
0.220014
0.220014
0.220012
0.220013
0.220013
0.220012
0.220008
0.220001
0.219995
0.219991
0.219991
0.219992
0.219996
0.22
0.220002
0.220002
0.22
0.219999
0.22
0.24
0.240015
0.240027
0.240028
0.240023
0.240023
0.240025
0.240022
0.240014
0.240003
0.239992
0.239987
0.239984
0.239988
0.239992
0.239998
0.240002
0.240003
0.240001
0.24
0.24
0.26
0.260021
0.260038
0.260039
0.260032
0.26003
0.260031
0.260029
0.260019
0.260006
0.259995
0.259987
0.259985
0.259985
0.259989
0.259993
0.259998
0.26
0.260002
0.260001
0.26
0.28
0.280027
0.280047
0.280047
0.280038
0.280033
0.280034
0.280031
0.280022
0.280011
0.280001
0.279994
0.279989
0.279987
0.279987
0.279989
0.279991
0.279995
0.279999
0.280002
0.28
0.3
0.300032
0.300053
0.300051
0.300038
0.300031
0.300032
0.300031
0.300026
0.300018
0.300011
0.300004
0.299998
0.299993
0.299988
0.299986
0.299986
0.299989
0.299994
0.299999
0.3
0.32
0.320036
0.320055
0.320049
0.320034
0.320026
0.320028
0.32003
0.320029
0.320025
0.32002
0.320014
0.320007
0.319999
0.319992
0.319987
0.319984
0.319985
0.319988
0.319993
0.32
0.34
0.340037
0.340051
0.340042
0.340027
0.340021
0.340024
0.340028
0.340029
0.340027
0.340024
0.340018
0.340011
0.340004
0.339996
0.33999
0.339986
0.339984
0.339984
0.339988
0.34
0.36
0.360032
0.360039
0.36003
0.360018
0.360014
0.360018
0.360022
0.360023
0.360022
0.360019
0.360015
0.36001
0.360005
0.36
0.359995
0.359991
0.359989
0.359987
0.35999
0.36
0.38
0.380018
0.38002
0.380013
0.380006
0.380005
0.380008
0.38001
0.380011
0.38001
0.380009
0.380007
0.380006
0.380004
0.380002
0.38
0.379998
0.379997
0.379996
0.379998
0.38
0.4
0.4
0.4
0.4
0.4
0.4
0.4
0.4
0.4
0.4
0.4
0.4
0.4
0.4
0.4
0.4
0.4
0.4
0.4
0.4
0.4
0
0.02
0.04
0.06
0.08
0.1
0.12
0.14
0.16
0.18
0.2
0.22
0.24
0.26
0.28
0.3
0.32
0.34
0.36
0.38
0.4
0
0.0199983
0.0400015
0.0600075
0.0800153
0.100027
0.12004
0.140053
0.160064
0.180071
0.200076
0.220078
0.240078
0.260074
0.280068
0.300059
0.320048
0.340036
0.360024
0.380012
0.4
0
0.0199878
0.039986
0.0599911
0.0800018
0.100018
0.120038
0.140057
0.16007
0.180079
0.200085
0.220087
0.240085
0.26008
0.280072
0.30006
0.320047
0.340033
0.360019
0.380008
0.4
0
0.0199772
0.0399638
0.0599613
0.0799692
0.0999867
0.120009
0.140028
0.16004
0.180046
0.200047
0.220045
0.240041
0.260035
0.280028
0.30002
0.320013
0.340005
0.36
0.379998
0.4
0
0.0199731
0.0399503
0.0599397
0.0799438
0.0999613
0.119986
0.140008
0.16002
0.180023
0.200019
0.220013
0.240005
0.259998
0.279993
0.299989
0.319987
0.339987
0.35999
0.379996
0.4
0
0.0199738
0.0399469
0.059931
0.0799309
0.0999486
0.119975
0.14
0.160015
0.180019
0.200014
0.220005
0.239996
0.259988
0.279984
0.299983
0.319985
0.339989
0.359995
0.379999
0.4
0
0.0199753
0.0399476
0.0599264
0.0799219
0.099936
0.119962
0.139987
0.160004
0.180009
0.200006
0.219999
0.239991
0.259986
0.279983
0.299985
0.31999
0.339996
0.36
0.380001
0.4
0
0.0199774
0.0399495
0.0599246
0.0799152
0.0999253
0.119947
0.139969
0.159985
0.179991
0.199991
0.219988
0.239986
0.259984
0.279986
0.299989
0.319994
0.339999
0.360001
0.38
0.4
0
0.0199806
0.0399537
0.0599264
0.0799143
0.0999202
0.119937
0.139956
0.159969
0.179976
0.199979
0.219982
0.239985
0.259989
0.279992
0.299996
0.319998
0.34
0.360001
0.38
0.4
0
0.0199834
0.0399565
0.0599284
0.0799142
0.099918
0.119932
0.139947
0.159958
0.179965
0.199971
0.219978
0.239986
0.259993
0.279998
0.300001
0.320001
0.34
0.359999
0.379999
0.4
0
0.0199844
0.0399583
0.059929
0.0799142
0.099917
0.11993
0.139943
0.159954
0.179961
0.199968
0.219977
0.239986
0.259995
0.28
0.300002
0.320001
0.339999
0.359998
0.379999
0.4
0
0.0199836
0.0399567
0.0599285
0.0799143
0.0999179
0.119932
0.139947
0.159958
0.179965
0.199971
0.219978
0.239985
0.259993
0.279998
0.300001
0.320001
0.34
0.359999
0.379999
0.4
0
0.0199809
0.039954
0.0599266
0.0799144
0.0999203
0.119937
0.139956
0.159969
0.179976
0.199979
0.219981
0.239985
0.259989
0.279992
0.299996
0.319999
0.34
0.360001
0.38
0.4
0
0.0199776
0.0399499
0.0599248
0.0799154
0.0999253
0.119947
0.139969
0.159984
0.179991
0.199991
0.219988
0.239986
0.259985
0.279986
0.299989
0.319994
0.339999
0.360001
0.38
0.4
0
0.0199754
0.0399478
0.0599267
0.079922
0.0999361
0.119962
0.139987
0.160004
0.180009
0.200006
0.219999
0.239991
0.259985
0.279983
0.299985
0.31999
0.339995
0.36
0.380001
0.4
0
0.0199739
0.0399472
0.0599313
0.0799311
0.0999486
0.119975
0.14
0.160015
0.180019
0.200014
0.220005
0.239996
0.259989
0.279984
0.299983
0.319985
0.339989
0.359995
0.379999
0.4
0
0.0199732
0.0399504
0.0599399
0.0799439
0.0999614
0.119986
0.140007
0.16002
0.180023
0.200019
0.220012
0.240005
0.259998
0.279993
0.299989
0.319987
0.339987
0.359991
0.379996
0.4
0
0.0199772
0.0399638
0.0599613
0.0799692
0.0999865
0.120008
0.140028
0.16004
0.180046
0.200046
0.220044
0.240041
0.260035
0.280028
0.30002
0.320012
0.340005
0.36
0.379998
0.4
0
0.0199877
0.039986
0.0599911
0.0800016
0.100018
0.120038
0.140056
0.16007
0.180079
0.200084
0.220086
0.240085
0.26008
0.280071
0.30006
0.320047
0.340033
0.360019
0.380008
0.4
0
0.0199983
0.0400015
0.0600074
0.0800153
0.100026
0.12004
0.140053
0.160063
0.180071
0.200076
0.220078
0.240077
0.260074
0.280068
0.300059
0.320048
0.340036
0.360023
0.380011
0.4
0
0.02
0.04
0.06
0.08
0.1
0.12
0.14
0.16
0.18
0.2
0.22
0.24
0.26
0.28
0.3
0.32
0.34
0.36
0.38
0.4
14.1469
14.1556
14.1511
14.1423
14.1357
14.1352
14.1382
14.1416
14.1432
14.1438
14.1438
14.1435
14.1429
14.1421
14.1413
14.1404
14.1394
14.1385
14.1388
14.1409
14.1521
14.1548
14.1503
14.1408
14.1309
14.1265
14.1298
14.1354
14.1398
14.1421
14.1434
14.1439
14.144
14.1439
14.1435
14.143
14.1421
14.1409
14.1395
14.1422
14.1594
14.1547
14.1483
14.1373
14.1252
14.1188
14.1211
14.128
14.1341
14.1381
14.1401
14.1411
14.1415
14.1417
14.1418
14.1419
14.1422
14.1421
14.141
14.1378
14.1638
14.158
14.1492
14.1363
14.1221
14.1137
14.1149
14.1217
14.1288
14.1334
14.136
14.137
14.1376
14.1379
14.1382
14.1384
14.1392
14.1393
14.1385
14.1345
14.1646
14.1614
14.1513
14.137
14.1202
14.1104
14.1108
14.118
14.1258
14.1311
14.1335
14.1345
14.1351
14.1356
14.1357
14.1357
14.136
14.1367
14.1363
14.1355
14.1626
14.1614
14.1519
14.1363
14.1178
14.1066
14.1072
14.115
14.1241
14.1303
14.1332
14.1341
14.1349
14.1356
14.1358
14.1359
14.1363
14.1367
14.1365
14.1374
14.16
14.1594
14.1526
14.1357
14.1163
14.1045
14.1045
14.1128
14.1229
14.1304
14.1337
14.1349
14.1356
14.1362
14.1366
14.1367
14.1366
14.1364
14.1361
14.1359
14.1565
14.1577
14.1533
14.1364
14.1166
14.1044
14.1037
14.1119
14.1225
14.1303
14.1341
14.135
14.1354
14.1359
14.1363
14.136
14.1357
14.1351
14.1352
14.1346
14.1526
14.1558
14.153
14.1367
14.1174
14.1046
14.1035
14.1115
14.1224
14.1306
14.1344
14.1354
14.1352
14.1354
14.1352
14.1352
14.1349
14.1348
14.1349
14.1344
14.1499
14.154
14.1525
14.1368
14.117
14.1045
14.1035
14.1113
14.1219
14.1302
14.1343
14.1357
14.1359
14.1357
14.1352
14.1348
14.1351
14.1353
14.1348
14.1347
14.1498
14.1539
14.1525
14.1367
14.1171
14.1045
14.1037
14.1112
14.122
14.1302
14.1344
14.1358
14.1359
14.1359
14.1352
14.135
14.135
14.1353
14.1347
14.1347
14.1522
14.1556
14.1529
14.1368
14.1175
14.1048
14.1036
14.1117
14.1225
14.1308
14.1345
14.1354
14.1353
14.1354
14.1354
14.1351
14.135
14.1347
14.1349
14.1344
14.1562
14.1575
14.1532
14.1364
14.1169
14.1046
14.1039
14.112
14.1227
14.1304
14.1341
14.135
14.1353
14.136
14.1362
14.136
14.1356
14.1352
14.1352
14.1345
14.1598
14.1593
14.1526
14.1358
14.1164
14.1047
14.1046
14.1129
14.123
14.1305
14.1337
14.1347
14.1355
14.136
14.1366
14.1366
14.1366
14.1363
14.136
14.1359
14.1624
14.1612
14.1518
14.1363
14.1179
14.1067
14.1072
14.1149
14.1242
14.1303
14.1332
14.134
14.1348
14.1356
14.1357
14.1359
14.1363
14.1367
14.1365
14.1373
14.1644
14.1612
14.1512
14.137
14.1203
14.1105
14.1108
14.1179
14.1258
14.1311
14.1335
14.1344
14.135
14.1355
14.1357
14.1357
14.136
14.1367
14.1363
14.1356
14.1638
14.1579
14.1491
14.1364
14.1222
14.1137
14.1149
14.1217
14.1288
14.1335
14.136
14.137
14.1376
14.1379
14.1381
14.1384
14.1391
14.1393
14.1385
14.1345
14.1594
14.1548
14.1484
14.1374
14.1254
14.1189
14.1212
14.128
14.1342
14.1382
14.1401
14.1411
14.1415
14.1417
14.1418
14.1419
14.1421
14.142
14.1409
14.1378
14.1522
14.1548
14.1504
14.141
14.131
14.1267
14.1298
14.1354
14.1398
14.1422
14.1434
14.1439
14.144
14.1439
14.1436
14.1429
14.1421
14.1408
14.1395
14.1421
14.1469
14.1556
14.1512
14.1424
14.1359
14.1353
14.1382
14.1415
14.1432
14.1439
14.1438
14.1436
14.143
14.1423
14.1413
14.1405
14.1394
14.1385
14.1388
14.1409
	1	22	23	2
	2	23	24	3
	3	24	25	4
	4	25	26	5
	5	26	27	6
	6	27	28	7
	7	28	29	8
	8	29	30	9
	9	30	31	10
	10	31	32	11
	11	32	33	12
	12	33	34	13
	13	34	35	14
	14	35	36	15
	15	36	37	16
	16	37	38	17
	17	38	39	18
	18	39	40	19
	19	40	41	20
	20	41	42	21
	22	43	44	23
	23	44	45	24
	24	45	46	25
	25	46	47	26
	26	47	48	27
	27	48	49	28
	28	49	50	29
	29	50	51	30
	30	51	52	31
	31	52	53	32
	32	53	54	33
	33	54	55	34
	34	55	56	35
	35	56	57	36
	36	57	58	37
	37	58	59	38
	38	59	60	39
	39	60	61	40
	40	61	62	41
	41	62	63	42
	43	64	65	44
	44	65	66	45
	45	66	67	46
	46	67	68	47
	47	68	69	48
	48	69	70	49
	49	70	71	50
	50	71	72	51
	51	72	73	52
	52	73	74	53
	53	74	75	54
	54	75	76	55
	55	76	77	56
	56	77	78	57
	57	78	79	58
	58	79	80	59
	59	80	81	60
	60	81	82	61
	61	82	83	62
	62	83	84	63
	64	85	86	65
	65	86	87	66
	66	87	88	67
	67	88	89	68
	68	89	90	69
	69	90	91	70
	70	91	92	71
	71	92	93	72
	72	93	94	73
	73	94	95	74
	74	95	96	75
	75	96	97	76
	76	97	98	77
	77	98	99	78
	78	99	100	79
	79	100	101	80
	80	101	102	81
	81	102	103	82
	82	103	104	83
	83	104	105	84
	85	106	107	86
	86	107	108	87
	87	108	109	88
	88	109	110	89
	89	110	111	90
	90	111	112	91
	91	112	113	92
	92	113	114	93
	93	114	115	94
	94	115	116	95
	95	116	117	96
	96	117	118	97
	97	118	119	98
	98	119	120	99
	99	120	121	100
	100	121	122	101
	101	122	123	102
	102	123	124	103
	103	124	125	104
	104	125	126	105
	106	127	128	107
	107	128	129	108
	108	129	130	109
	109	130	131	110
	110	131	132	111
	111	132	133	112
	112	133	134	113
	113	134	135	114
	114	135	136	115
	115	136	137	116
	116	137	138	117
	117	138	139	118
	118	139	140	119
	119	140	141	120
	120	141	142	121
	121	142	143	122
	122	143	144	123
	123	144	145	124
	124	145	146	125
	125	146	147	126
	127	148	149	128
	128	149	150	129
	129	150	151	130
	130	151	152	131
	131	152	153	132
	132	153	154	133
	133	154	155	134
	134	155	156	135
	135	156	157	136
	136	157	158	137
	137	158	159	138
	138	159	160	139
	139	160	161	140
	140	161	162	141
	141	162	163	142
	142	163	164	143
	143	164	165	144
	144	165	166	145
	145	166	167	146
	146	167	168	147
	148	169	170	149
	149	170	171	150
	150	171	172	151
	151	172	173	152
	152	173	174	153
	153	174	175	154
	154	175	176	155
	155	176	177	156
	156	177	178	157
	157	178	179	158
	158	179	180	159
	159	180	181	160
	160	181	182	161
	161	182	183	162
	162	183	184	163
	163	184	185	164
	164	185	186	165
	165	186	187	166
	166	187	188	167
	167	188	189	168
	169	190	191	170
	170	191	192	171
	171	192	193	172
	172	193	194	173
	173	194	195	174
	174	195	196	175
	175	196	197	176
	176	197	198	177
	177	198	199	178
	178	199	200	179
	179	200	201	180
	180	201	202	181
	181	202	203	182
	182	203	204	183
	183	204	205	184
	184	205	206	185
	185	206	207	186
	186	207	208	187
	187	208	209	188
	188	209	210	189
	190	211	212	191
	191	212	213	192
	192	213	214	193
	193	214	215	194
	194	215	216	195
	195	216	217	196
	196	217	218	197
	197	218	219	198
	198	219	220	199
	199	220	221	200
	200	221	222	201
	201	222	223	202
	202	223	224	203
	203	224	225	204
	204	225	226	205
	205	226	227	206
	206	227	228	207
	207	228	229	208
	208	229	230	209
	209	230	231	210
	211	232	233	212
	212	233	234	213
	213	234	235	214
	214	235	236	215
	215	236	237	216
	216	237	238	217
	217	238	239	218
	218	239	240	219
	219	240	241	220
	220	241	242	221
	221	242	243	222
	222	243	244	223
	223	244	245	224
	224	245	246	225
	225	246	247	226
	226	247	248	227
	227	248	249	228
	228	249	250	229
	229	250	251	230
	230	251	252	231
	232	253	254	233
	233	254	255	234
	234	255	256	235
	235	256	257	236
	236	257	258	237
	237	258	259	238
	238	259	260	239
	239	260	261	240
	240	261	262	241
	241	262	263	242
	242	263	264	243
	243	264	265	244
	244	265	266	245
	245	266	267	246
	246	267	268	247
	247	268	269	248
	248	269	270	249
	249	270	271	250
	250	271	272	251
	251	272	273	252
	253	274	275	254
	254	275	276	255
	255	276	277	256
	256	277	278	257
	257	278	279	258
	258	279	280	259
	259	280	281	260
	260	281	282	261
	261	282	283	262
	262	283	284	263
	263	284	285	264
	264	285	286	265
	265	286	287	266
	266	287	288	267
	267	288	289	268
	268	289	290	269
	269	290	291	270
	270	291	292	271
	271	292	293	272
	272	293	294	273
	274	295	296	275
	275	296	297	276
	276	297	298	277
	277	298	299	278
	278	299	300	279
	279	300	301	280
	280	301	302	281
	281	302	303	282
	282	303	304	283
	283	304	305	284
	284	305	306	285
	285	306	307	286
	286	307	308	287
	287	308	309	288
	288	309	310	289
	289	310	311	290
	290	311	312	291
	291	312	313	292
	292	313	314	293
	293	314	315	294
	295	316	317	296
	296	317	318	297
	297	318	319	298
	298	319	320	299
	299	320	321	300
	300	321	322	301
	301	322	323	302
	302	323	324	303
	303	324	325	304
	304	325	326	305
	305	326	327	306
	306	327	328	307
	307	328	329	308
	308	329	330	309
	309	330	331	310
	310	331	332	311
	311	332	333	312
	312	333	334	313
	313	334	335	314
	314	335	336	315
	316	337	338	317
	317	338	339	318
	318	339	340	319
	319	340	341	320
	320	341	342	321
	321	342	343	322
	322	343	344	323
	323	344	345	324
	324	345	346	325
	325	346	347	326
	326	347	348	327
	327	348	349	328
	328	349	350	329
	329	350	351	330
	330	351	352	331
	331	352	353	332
	332	353	354	333
	333	354	355	334
	334	355	356	335
	335	356	357	336
	337	358	359	338
	338	359	360	339
	339	360	361	340
	340	361	362	341
	341	362	363	342
	342	363	364	343
	343	364	365	344
	344	365	366	345
	345	366	367	346
	346	367	368	347
	347	368	369	348
	348	369	370	349
	349	370	371	350
	350	371	372	351
	351	372	373	352
	352	373	374	353
	353	374	375	354
	354	375	376	355
	355	376	377	356
	356	377	378	357
	358	379	380	359
	359	380	381	360
	360	381	382	361
	361	382	383	362
	362	383	384	363
	363	384	385	364
	364	385	386	365
	365	386	387	366
	366	387	388	367
	367	388	389	368
	368	389	390	369
	369	390	391	370
	370	391	392	371
	371	392	393	372
	372	393	394	373
	373	394	395	374
	374	395	396	375
	375	396	397	376
	376	397	398	377
	377	398	399	378
	379	400	401	380
	380	401	402	381
	381	402	403	382
	382	403	404	383
	383	404	405	384
	384	405	406	385
	385	406	407	386
	386	407	408	387
	387	408	409	388
	388	409	410	389
	389	410	411	390
	390	411	412	391
	391	412	413	392
	392	413	414	393
	393	414	415	394
	394	415	416	395
	395	416	417	396
	396	417	418	397
	397	418	419	398
	398	419	420	399
	400	421	422	401
	401	422	423	402
	402	423	424	403
	403	424	425	404
	404	425	426	405
	405	426	427	406
	406	427	428	407
	407	428	429	408
	408	429	430	409
	409	430	431	410
	410	431	432	411
	411	432	433	412
	412	433	434	413
	413	434	435	414
	414	435	436	415
	415	436	437	416
	416	437	438	417
	417	438	439	418
	418	439	440	419
	419	440	441	420
