VARIABLES = X, Y, ux
ZONE N = 1111, E = 1000
ZONETYPE = FEQUADRILATERAL
DATAPACKING = BLOCK
varlocation=([3]=cellcentered)
0.75
0.75
0.75
0.75
0.75
0.75
0.75
0.75
0.75
0.75
0.75
0.75329
0.75326
0.753417
0.75334
0.753256
0.7532
0.753128
0.753036
0.752971
0.752715
0.75238
0.75704
0.756619
0.756752
0.756617
0.756458
0.756354
0.756252
0.756108
0.755988
0.755625
0.755009
0.760504
0.759756
0.759894
0.759702
0.759491
0.759369
0.759224
0.759074
0.758871
0.758391
0.757501
0.763669
0.762716
0.76284
0.762631
0.762391
0.762258
0.762094
0.761906
0.761653
0.761021
0.759911
0.766751
0.76561
0.765688
0.76548
0.765279
0.765136
0.76495
0.764744
0.764429
0.763641
0.762349
0.769774
0.768449
0.768512
0.768309
0.768136
0.76802
0.767826
0.767572
0.7672
0.766295
0.764835
0.772741
0.771252
0.771315
0.771162
0.771045
0.770953
0.770739
0.770463
0.770026
0.769015
0.767366
0.775744
0.774093
0.774164
0.774074
0.773993
0.773909
0.773674
0.773381
0.772892
0.771798
0.769932
0.778686
0.77692
0.777011
0.776983
0.776945
0.776879
0.776651
0.776327
0.775771
0.77459
0.772498
0.781645
0.77976
0.779886
0.77993
0.779933
0.779889
0.779629
0.779281
0.778697
0.777371
0.775031
0.784598
0.782602
0.782744
0.782883
0.782935
0.78292
0.78265
0.782271
0.78159
0.780119
0.777522
0.78756
0.785472
0.785712
0.785911
0.785998
0.785983
0.785672
0.785231
0.784446
0.782847
0.780012
0.790526
0.788345
0.78865
0.788921
0.789029
0.78901
0.78866
0.788155
0.787292
0.785561
0.782465
0.793537
0.791251
0.791628
0.791968
0.792097
0.792061
0.791684
0.791104
0.790143
0.788259
0.784888
0.796523
0.794172
0.794654
0.795009
0.795164
0.795115
0.794694
0.794092
0.792976
0.790887
0.787238
0.799606
0.797183
0.79774
0.798096
0.798228
0.798149
0.797665
0.797003
0.795722
0.793396
0.789532
0.802745
0.80025
0.800855
0.801167
0.801277
0.801138
0.800643
0.799824
0.798369
0.79591
0.791833
0.805947
0.803388
0.804023
0.804244
0.804307
0.804111
0.803544
0.802675
0.801038
0.798418
0.794146
0.809298
0.806602
0.807169
0.80733
0.807326
0.807059
0.806395
0.80542
0.803695
0.800918
0.796375
0.812596
0.809886
0.810284
0.810389
0.810321
0.809996
0.809268
0.808181
0.806321
0.80342
0.798625
0.815865
0.813194
0.813413
0.813432
0.8133
0.812903
0.812117
0.810975
0.808981
0.805942
0.800878
0.819278
0.816517
0.816566
0.816479
0.816281
0.815812
0.814938
0.813687
0.811544
0.808275
0.803153
0.822671
0.819801
0.8197
0.819519
0.819236
0.818681
0.81774
0.816394
0.814122
0.810692
0.805371
0.82607
0.823051
0.82282
0.822549
0.822172
0.821512
0.82049
0.819033
0.816632
0.813082
0.8076
0.829532
0.826328
0.825952
0.825572
0.825095
0.824342
0.823254
0.821706
0.819153
0.815455
0.809846
0.832909
0.829579
0.829063
0.82858
0.828008
0.827165
0.826017
0.824387
0.821727
0.817857
0.812082
0.836315
0.83281
0.832169
0.83158
0.830905
0.82996
0.82876
0.827012
0.824268
0.82028
0.814295
0.839696
0.836046
0.835279
0.834585
0.833814
0.832795
0.831549
0.829742
0.826885
0.822752
0.816508
0.84308
0.839278
0.838371
0.837586
0.836725
0.835651
0.834372
0.832502
0.829492
0.825009
0.818658
0.846461
0.842508
0.841458
0.840556
0.839617
0.838475
0.837148
0.835205
0.832061
0.827341
0.820788
0.849771
0.845624
0.844572
0.843545
0.842498
0.841265
0.839878
0.83777
0.834455
0.82969
0.823057
0.853096
0.848811
0.847611
0.846489
0.845358
0.844074
0.842646
0.840437
0.836864
0.832058
0.825282
0.856342
0.851839
0.850648
0.849411
0.848185
0.84682
0.845309
0.842983
0.839211
0.834165
0.827433
0.859579
0.854861
0.853648
0.852303
0.850986
0.849534
0.847937
0.84547
0.841589
0.836395
0.829488
0.862784
0.85791
0.856596
0.855167
0.853787
0.852284
0.850657
0.848066
0.844059
0.838702
0.83159
0.86592
0.860831
0.859555
0.858044
0.856618
0.855082
0.853412
0.850687
0.846557
0.841064
0.83373
0.869028
0.863795
0.862483
0.860913
0.859449
0.857884
0.856174
0.853288
0.848832
0.843297
0.835942
0.8721
0.866701
0.865399
0.86379
0.862281
0.860652
0.858879
0.85592
0.851233
0.845492
0.838109
0.875143
0.869582
0.868294
0.86663
0.865063
0.86336
0.861464
0.85838
0.853744
0.847731
0.840201
0.878101
0.872411
0.871159
0.869459
0.867838
0.866059
0.864119
0.860847
0.856367
0.8502
0.842509
0.880977
0.875256
0.873947
0.872232
0.870591
0.868764
0.866792
0.863335
0.85861
0.852579
0.844674
0.883826
0.878063
0.876683
0.874966
0.873332
0.8715
0.869472
0.866063
0.86107
0.854829
0.846745
0.886619
0.880822
0.879385
0.877682
0.876032
0.874197
0.872147
0.868707
0.863494
0.856565
0.848711
0.889409
0.883437
0.882079
0.880388
0.878745
0.876879
0.874743
0.871158
0.866031
0.858975
0.851034
0.892183
0.886012
0.884718
0.883057
0.88143
0.879552
0.877423
0.873704
0.868573
0.861563
0.853239
0.894773
0.888548
0.887323
0.885664
0.884089
0.882194
0.879942
0.876044
0.870335
0.863492
0.855512
0.897321
0.891
0.889803
0.888153
0.886618
0.884684
0.882331
0.878316
0.872404
0.865479
0.857671
0.899802
0.893417
0.892265
0.890644
0.889137
0.887218
0.884704
0.880538
0.874578
0.867585
0.859787
0.902215
0.895756
0.894673
0.89318
0.891686
0.889775
0.887208
0.882865
0.876938
0.869863
0.862062
0.904559
0.898073
0.897054
0.895647
0.894233
0.892334
0.889901
0.88549
0.87936
0.872268
0.864598
0.906841
0.900348
0.899423
0.898085
0.89672
0.894886
0.892448
0.888209
0.882079
0.874863
0.866976
0.909072
0.902605
0.90176
0.90051
0.899203
0.897505
0.895071
0.890836
0.884634
0.877213
0.869337
0.91126
0.904832
0.904091
0.902975
0.901776
0.900172
0.897729
0.893506
0.887273
0.879632
0.871642
0.913468
0.907032
0.906427
0.905435
0.904349
0.902837
0.900477
0.89613
0.889703
0.882161
0.874062
0.915552
0.909211
0.908789
0.907904
0.906945
0.905481
0.903105
0.8988
0.89218
0.884655
0.876472
0.917658
0.911345
0.911094
0.910407
0.909583
0.908246
0.905661
0.901309
0.894621
0.886968
0.878785
0.919693
0.913485
0.913411
0.912922
0.912204
0.910851
0.908214
0.903715
0.89711
0.889367
0.881073
0.921787
0.91566
0.915772
0.915411
0.914844
0.913497
0.910813
0.906176
0.89957
0.891877
0.883567
0.923891
0.91783
0.918141
0.917917
0.917443
0.916069
0.913342
0.908758
0.90189
0.894359
0.886132
0.925954
0.91998
0.920512
0.920408
0.920002
0.918558
0.915684
0.911156
0.904321
0.896725
0.888595
0.927985
0.922151
0.922854
0.922895
0.922571
0.921082
0.918047
0.913492
0.906785
0.899142
0.89097
0.930057
0.924353
0.925243
0.92536
0.925075
0.923544
0.920498
0.915728
0.909135
0.901639
0.893471
0.932153
0.926581
0.927641
0.927877
0.927501
0.925914
0.922889
0.918109
0.91138
0.904143
0.89609
0.934279
0.928847
0.930068
0.930257
0.929889
0.928242
0.925051
0.9204
0.91368
0.90651
0.898591
0.936338
0.931077
0.932511
0.932612
0.932221
0.930619
0.927272
0.922587
0.916138
0.908966
0.900991
0.938457
0.933427
0.93488
0.934964
0.934521
0.932881
0.929568
0.924679
0.918429
0.911415
0.903528
0.940508
0.935811
0.937222
0.937252
0.936783
0.935042
0.931767
0.926885
0.920661
0.913915
0.906244
0.942699
0.938119
0.939507
0.939487
0.938995
0.937192
0.933841
0.929174
0.92294
0.916376
0.908853
0.944817
0.940388
0.941794
0.94172
0.941216
0.939436
0.935936
0.93133
0.925411
0.91899
0.911563
0.946848
0.942618
0.944041
0.943933
0.943371
0.941544
0.938098
0.933322
0.927667
0.9216
0.914261
0.948854
0.944836
0.946235
0.946097
0.945505
0.943554
0.940174
0.935561
0.930049
0.92431
0.91706
0.95085
0.946939
0.948449
0.948258
0.947635
0.945659
0.942197
0.937801
0.932469
0.926862
0.919774
0.952805
0.949048
0.950598
0.950388
0.949709
0.947743
0.944238
0.940044
0.935019
0.929543
0.922601
0.954707
0.951113
0.952744
0.952502
0.951768
0.949754
0.946347
0.942119
0.93731
0.932103
0.925337
0.9566
0.953164
0.954855
0.954596
0.953864
0.951758
0.948469
0.944444
0.939688
0.93469
0.928201
0.958486
0.955189
0.956987
0.956703
0.955944
0.953837
0.950492
0.946695
0.942041
0.937284
0.931066
0.960377
0.957223
0.959026
0.958751
0.957906
0.955789
0.952627
0.949007
0.944565
0.940101
0.933982
0.962255
0.959223
0.961067
0.960781
0.959937
0.957779
0.954778
0.95128
0.946966
0.94286
0.936895
0.96413
0.961189
0.963076
0.962771
0.961912
0.959814
0.956915
0.953568
0.949407
0.945618
0.939745
0.965979
0.96312
0.965108
0.9648
0.963854
0.961865
0.95905
0.955857
0.951889
0.948339
0.942626
0.967775
0.965047
0.967064
0.966814
0.96583
0.963914
0.961197
0.958062
0.954428
0.951073
0.945584
0.969567
0.966967
0.969023
0.968739
0.967789
0.965936
0.963335
0.96041
0.956912
0.953832
0.948421
0.971403
0.968859
0.970992
0.970728
0.969735
0.968001
0.965487
0.962719
0.959484
0.956513
0.951264
0.973119
0.970742
0.972964
0.972696
0.971695
0.970039
0.967625
0.964972
0.961935
0.959227
0.954116
0.974886
0.972632
0.974907
0.97464
0.97366
0.972074
0.969751
0.967264
0.964478
0.961895
0.957095
0.976673
0.974515
0.976853
0.976558
0.975595
0.974093
0.971893
0.969561
0.966984
0.964564
0.960004
0.978432
0.976379
0.97877
0.978491
0.977521
0.976109
0.974004
0.971825
0.96952
0.967274
0.962969
0.98023
0.978313
0.980652
0.980418
0.979446
0.97811
0.976158
0.974107
0.971986
0.96995
0.965927
0.982045
0.980215
0.982555
0.982319
0.981334
0.98014
0.978312
0.976377
0.974528
0.972696
0.968875
0.98384
0.98208
0.984442
0.984237
0.983252
0.982162
0.980499
0.97871
0.977069
0.975357
0.971697
0.985651
0.983951
0.986317
0.986089
0.985098
0.984168
0.982638
0.980902
0.979511
0.978073
0.974572
0.987442
0.98581
0.988193
0.987965
0.987025
0.986249
0.984806
0.983197
0.981976
0.980737
0.977383
0.989231
0.987674
0.990079
0.989842
0.988894
0.988239
0.986882
0.98541
0.98435
0.983357
0.980269
0.991094
0.989488
0.991942
0.991736
0.990836
0.990333
0.98913
0.987691
0.986705
0.985993
0.983043
0.992925
0.991317
0.993799
0.993613
0.992777
0.992377
0.991275
0.989941
0.989063
0.988575
0.985844
0.994733
0.993184
0.995661
0.995488
0.9947
0.994404
0.993455
0.992203
0.991381
0.991147
0.988639
0.996567
0.995021
0.997391
0.997247
0.99657
0.996416
0.995601
0.994443
0.993699
0.993695
0.991448
0.998199
0.996768
0.998751
0.998636
0.9981
0.99809
0.997426
0.99645
0.995769
0.995948
0.994319
0.999397
0.998537
0.999548
0.999495
0.999074
0.999219
0.998785
0.998206
0.997675
0.997923
0.99715
1
1
1
1
1
1
1
1
1
1
1
0
0.01
0.02
0.03
0.04
0.05
0.06
0.07
0.08
0.09
0.1
1.28399e-011
0.00986079
0.0203116
0.0304314
0.0404852
0.05044
0.0602888
0.0700856
0.0797937
0.0897833
0.1
-1.73954e-011
0.0102188
0.0207994
0.0309721
0.0410221
0.0509726
0.0607392
0.0704224
0.0799971
0.0897414
0.1
3.49066e-011
0.0105155
0.0211716
0.0315203
0.0416903
0.051595
0.0612932
0.070927
0.0803644
0.08999
0.1
-4.68093e-012
0.0107136
0.0215379
0.0320347
0.0423332
0.0521963
0.0618403
0.0713198
0.0806839
0.0902204
0.1
-3.23415e-011
0.0108467
0.0218102
0.0323565
0.042606
0.052515
0.0621437
0.071528
0.0808849
0.0903766
0.1
-2.06782e-011
0.0109811
0.0219592
0.0325788
0.042807
0.0527292
0.062389
0.0717029
0.0810278
0.0904739
0.1
-2.95145e-011
0.0110682
0.0221195
0.0327572
0.0429492
0.0527753
0.0624128
0.0717434
0.081086
0.0905265
0.1
-1.12408e-011
0.0110807
0.0221019
0.0327232
0.0428921
0.0526696
0.0622754
0.0717113
0.0810446
0.0905108
0.1
1.34852e-011
0.0110135
0.0220065
0.0325983
0.0427359
0.0524461
0.0619923
0.0714018
0.0808189
0.0904053
0.1
-4.678e-012
0.0109683
0.0219441
0.0324942
0.0425539
0.0522157
0.0617545
0.0711437
0.0805937
0.0902878
0.1
-3.36493e-012
0.0108023
0.0215863
0.0320095
0.0419938
0.0517163
0.0612949
0.0707964
0.0802995
0.0901622
0.1
-1.74757e-011
0.0106324
0.0213665
0.0317481
0.0416181
0.0513276
0.0609542
0.0704057
0.0800218
0.0900644
0.1
-1.45285e-011
0.0104972
0.0210956
0.0313618
0.0411684
0.0508976
0.0605006
0.0699944
0.079714
0.089924
0.1
-5.11037e-012
0.010333
0.0207958
0.0309302
0.0406665
0.0503978
0.0599405
0.0695272
0.0793521
0.0897401
0.1
1.83366e-011
0.0100716
0.0203649
0.0303408
0.0400906
0.0497349
0.0593271
0.0689004
0.0788835
0.0895231
0.1
5.99702e-012
0.00977557
0.0199118
0.0297389
0.0395143
0.0491227
0.058796
0.0685482
0.0786419
0.0895261
0.1
1.16875e-011
0.00947781
0.0194132
0.0291604
0.0388549
0.048585
0.0582875
0.068298
0.0785787
0.0894933
0.1
-1.79281e-011
0.00918641
0.0189218
0.0286486
0.0383958
0.0481751
0.0580527
0.068046
0.078463
0.0894672
0.1
3.33442e-013
0.00899082
0.0185288
0.0282294
0.0380362
0.0478628
0.0578187
0.0680247
0.078382
0.0893978
0.1
2.70105e-012
0.0088022
0.018216
0.0279182
0.0377008
0.0475895
0.0575263
0.0678315
0.0782509
0.0892485
0.1
1.28824e-011
0.00873792
0.0180581
0.0276992
0.0374714
0.0473266
0.0573316
0.0675149
0.0780492
0.0890729
0.1
2.64623e-011
0.00862207
0.0179551
0.0275491
0.0373415
0.0471936
0.0572222
0.0674862
0.0780735
0.0893329
0.1
-3.63745e-011
0.00851631
0.0178375
0.0274544
0.0372349
0.0471743
0.057262
0.0675968
0.078092
0.0893695
0.1
1.28942e-011
0.0085306
0.0177886
0.0273715
0.0371058
0.0471202
0.0572989
0.0676968
0.0782832
0.0894401
0.1
1.7108e-012
0.00855346
0.0178042
0.0273187
0.0370666
0.0470874
0.0573071
0.0677021
0.0783874
0.0894805
0.1
-2.26642e-013
0.0084452
0.017724
0.0272781
0.0370757
0.0471068
0.0573465
0.0677197
0.0783208
0.089459
0.1
-1.45625e-011
0.00845455
0.0176334
0.0272055
0.0369691
0.0470286
0.0572098
0.067581
0.0781715
0.0893363
0.1
-4.65988e-012
0.00845406
0.0175679
0.027077
0.0368389
0.0468359
0.0569648
0.0672959
0.0779235
0.0891609
0.1
-8.71677e-012
0.00843887
0.0175617
0.0269818
0.0367584
0.0466607
0.0567294
0.0669531
0.0776041
0.0892077
0.1
2.24902e-011
0.00841953
0.0175512
0.0269941
0.0367143
0.046627
0.0566494
0.0668153
0.0773834
0.0891537
0.1
-5.06107e-011
0.00849399
0.0176126
0.0270532
0.0367648
0.0467164
0.056667
0.0668233
0.0773795
0.0889335
0.1
6.42534e-011
0.00844885
0.0176563
0.0271132
0.0368699
0.0468363
0.0567983
0.0669175
0.0775748
0.088918
0.1
-7.79371e-011
0.00854686
0.0178217
0.0273334
0.037128
0.0471144
0.0571179
0.0672184
0.077893
0.089323
0.1
1.00212e-010
0.00861581
0.0179379
0.027474
0.0373163
0.0473137
0.057328
0.067534
0.0780709
0.0894035
0.1
-1.03254e-010
0.00862588
0.0179926
0.0275543
0.0373315
0.0472314
0.0571546
0.067415
0.0779281
0.0893219
0.1
9.26198e-011
0.00875748
0.0181101
0.0276686
0.0373361
0.0471373
0.0570074
0.0673374
0.0778197
0.0892422
0.1
-5.8085e-011
0.00876263
0.0181107
0.0276422
0.0372627
0.0470084
0.0568955
0.0673137
0.0782106
0.0894547
0.1
3.5319e-011
0.00881159
0.0181745
0.027693
0.0372991
0.0470317
0.0570092
0.0671736
0.0783035
0.0896116
0.1
-1.2785e-011
0.0088282
0.0182862
0.0278144
0.0374422
0.0471462
0.0571486
0.0672834
0.0781209
0.0896436
0.1
-8.04789e-012
0.00883262
0.0183315
0.0278807
0.0375136
0.0472132
0.057062
0.0673676
0.0776377
0.0892235
0.1
1.86032e-011
0.00894441
0.0184686
0.0281069
0.0377317
0.0474181
0.057122
0.0674347
0.0779356
0.0891098
0.1
-4.36298e-011
0.00901655
0.0186405
0.0283573
0.038013
0.0476519
0.0573723
0.0673402
0.0779727
0.0891331
0.1
2.89241e-011
0.00909879
0.0188565
0.0285869
0.0382428
0.0477841
0.0574283
0.067252
0.0779644
0.0897875
0.1
-4.75763e-011
0.0091706
0.0190625
0.0287825
0.0384154
0.0479569
0.0576063
0.0674838
0.0776425
0.0894281
0.1
3.79843e-012
0.00929364
0.0193342
0.0290746
0.0386953
0.0482523
0.0577109
0.0675613
0.0773463
0.0888235
0.1
-1.75153e-011
0.00945168
0.0196395
0.0295148
0.0392094
0.0488053
0.0583585
0.0681912
0.0784398
0.0894906
0.1
-4.12992e-011
0.00967054
0.0200644
0.0301374
0.0399484
0.0495723
0.0592727
0.0690662
0.079282
0.0900353
0.1
4.01744e-011
0.00984004
0.0203037
0.0304825
0.0403605
0.04999
0.0599433
0.0698135
0.0798655
0.0903933
0.1
-9.27448e-011
0.0100015
0.0205214
0.0306349
0.040625
0.0503102
0.0600938
0.0701486
0.0801003
0.0906022
0.1
4.79484e-011
0.0101082
0.0206008
0.0307832
0.0406638
0.0505362
0.0600618
0.0700487
0.0801754
0.0906144
0.1
-1.02324e-010
0.0102033
0.0207432
0.0310064
0.0409558
0.050742
0.0604546
0.0701315
0.0800999
0.0904679
0.1
6.83357e-011
0.0102779
0.0208374
0.0310797
0.0410578
0.0506921
0.060436
0.0701481
0.0801203
0.0906302
0.1
-1.15626e-010
0.0103335
0.0208607
0.0310112
0.0409362
0.0505326
0.0602325
0.0701507
0.0800308
0.0906809
0.1
9.92428e-011
0.0103001
0.0208453
0.0309332
0.0406634
0.0503118
0.0599643
0.0700411
0.0801574
0.0906804
0.1
-1.38347e-010
0.0103349
0.0207508
0.0307884
0.0404485
0.0501536
0.0598707
0.0698809
0.0802187
0.0906718
0.1
9.80904e-011
0.0104248
0.0206889
0.0304152
0.0400498
0.049469
0.0597275
0.0698834
0.0803081
0.0907998
0.1
-1.26142e-010
0.0104225
0.0206994
0.0303359
0.03992
0.0494447
0.0595096
0.070025
0.0803249
0.0908216
0.1
1.10741e-010
0.010251
0.0204974
0.0301067
0.0395
0.0491251
0.0590853
0.0699493
0.0802623
0.0908396
0.1
-1.13691e-010
0.0101235
0.0202041
0.0297604
0.0392368
0.0490102
0.0590424
0.0696575
0.0803426
0.0908759
0.1
8.80538e-011
0.00998508
0.0199148
0.029454
0.0389869
0.048861
0.0592176
0.0697045
0.0803391
0.0909641
0.1
-1.24048e-010
0.00995279
0.0196167
0.0290567
0.0385521
0.0485024
0.0592222
0.0697918
0.0802826
0.0909716
0.1
8.9158e-011
0.009741
0.0192556
0.0286083
0.0383194
0.048427
0.0589093
0.069913
0.0803555
0.0909839
0.1
-1.19956e-010
0.00949006
0.0189303
0.028242
0.0382878
0.0485839
0.0589176
0.0698582
0.0805503
0.0910484
0.1
9.61623e-011
0.00916985
0.0184884
0.0281069
0.0379351
0.0484283
0.0592953
0.0699538
0.0806938
0.0911549
0.1
-9.98576e-011
0.00909359
0.0181728
0.027903
0.0378506
0.0482205
0.0594428
0.0701778
0.0806993
0.0911752
0.1
7.27342e-011
0.00899868
0.0181541
0.0276736
0.037894
0.0484157
0.0592417
0.0704384
0.0808693
0.0912974
0.1
-8.9031e-011
0.00884498
0.0180364
0.0276614
0.037887
0.0487285
0.059374
0.0705846
0.0810758
0.0914249
0.1
7.28331e-011
0.00859772
0.0178954
0.0278744
0.0381311
0.0488397
0.0597969
0.0705958
0.0812322
0.0915442
0.1
-6.42841e-011
0.00869585
0.018069
0.0279254
0.0381925
0.0487501
0.0600491
0.0708048
0.0812419
0.0913761
0.1
6.76687e-011
0.00876984
0.0183101
0.0280919
0.0385296
0.049229
0.0600976
0.0712223
0.0815289
0.0914756
0.1
-6.23343e-011
0.00878139
0.0182893
0.0282
0.0386087
0.0496849
0.060457
0.0713233
0.0814978
0.0915626
0.1
5.20435e-011
0.00889517
0.0183592
0.0283973
0.03895
0.0498437
0.0608762
0.0714962
0.0816078
0.0917102
0.1
-5.54834e-011
0.00898765
0.0186612
0.0286271
0.0392628
0.0499661
0.0611578
0.071665
0.0815424
0.0915078
0.1
3.74631e-011
0.00900896
0.0187326
0.0286644
0.0393823
0.0503219
0.0613167
0.0720522
0.0819227
0.0916174
0.1
-2.75038e-011
0.00901002
0.0186246
0.0288043
0.0394121
0.0505917
0.0615031
0.0720839
0.0820811
0.0918272
0.1
4.05645e-011
0.00900098
0.0185521
0.0288647
0.0396786
0.0506157
0.0617756
0.0722703
0.0824011
0.0920508
0.1
-2.93171e-011
0.00902613
0.0188049
0.0289662
0.0399729
0.0508733
0.0618966
0.0722909
0.0822459
0.0918228
0.1
1.77806e-011
0.00904257
0.0188151
0.0291188
0.039913
0.0510846
0.0619652
0.0723643
0.0823017
0.0917928
0.1
-3.2519e-011
0.00906984
0.0187338
0.0291781
0.0399552
0.0512072
0.0620572
0.0724397
0.0823304
0.0918383
0.1
1.69572e-011
0.00910428
0.0188948
0.0290753
0.040208
0.0512307
0.0621492
0.0725252
0.0824307
0.0919046
0.1
-2.07499e-011
0.00910328
0.0189779
0.0293022
0.0401834
0.0512637
0.0621541
0.0727532
0.0824223
0.0917619
0.1
2.57338e-011
0.00907579
0.0187986
0.0293973
0.0402109
0.0513435
0.0622393
0.0727044
0.0824491
0.0917485
0.1
-6.79468e-012
0.00909142
0.0188163
0.0291807
0.040264
0.0512792
0.062213
0.0727185
0.0824733
0.0918208
0.1
1.09601e-011
0.00901566
0.0187855
0.0292543
0.0402682
0.0513166
0.0622733
0.0728426
0.0825867
0.0919363
0.1
-1.92496e-011
0.00899964
0.0187051
0.0293233
0.0402234
0.0513124
0.0623289
0.0728775
0.0826769
0.091892
0.1
-2.0006e-012
0.00891504
0.0185965
0.0292716
0.0401916
0.051296
0.0623478
0.072944
0.08268
0.0919081
0.1
-1.27721e-011
0.00886222
0.018508
0.0290879
0.0401551
0.0512848
0.0624021
0.0729638
0.0826161
0.0918631
0.1
1.30324e-011
0.00877251
0.0183886
0.0290712
0.0401211
0.0513638
0.0624596
0.0728674
0.0826334
0.0917992
0.1
8.59365e-013
0.00874713
0.0183506
0.0291812
0.0402526
0.0513779
0.0624014
0.0727969
0.0826378
0.0916747
0.1
5.72639e-012
0.00868841
0.0182877
0.0290643
0.0402082
0.0513371
0.0622686
0.0727415
0.0825559
0.0917106
0.1
-8.48962e-012
0.0086504
0.0182431
0.0291341
0.0402603
0.0514184
0.0622963
0.0726801
0.0824803
0.0917453
0.1
-2.32021e-012
0.00858088
0.0181265
0.0291037
0.0401397
0.0512554
0.0621531
0.0725295
0.0825071
0.0918836
0.1
-1.00684e-011
0.00847401
0.0180199
0.0291515
0.0403195
0.0514008
0.0623861
0.0725635
0.0823577
0.0917643
0.1
-2.13689e-013
0.0084033
0.0179997
0.0290604
0.0401652
0.0513585
0.0621727
0.0723595
0.0821902
0.0917292
0.1
1.17181e-012
0.00835068
0.0180265
0.0292112
0.0402938
0.0513854
0.0622919
0.0724281
0.0821832
0.0917529
0.1
6.44572e-012
0.00831703
0.0179928
0.0292398
0.0403415
0.0513904
0.0623048
0.072335
0.0821913
0.0918078
0.1
-1.56563e-012
0.00836995
0.0181225
0.0293934
0.0402508
0.0512872
0.0621435
0.072311
0.0818275
0.091707
0.1
-1.28657e-012
0.00847026
0.018356
0.0295483
0.040286
0.0511572
0.0620474
0.0721999
0.0815343
0.0914268
0.1
-3.98874e-012
0.00886146
0.0187912
0.0297905
0.0402717
0.0507535
0.0614534
0.0714838
0.0810252
0.0907585
0.1
0
0.01
0.02
0.03
0.04
0.05
0.06
0.07
0.08
0.09
0.1
0.993106
1.01602
1.00323
1.0018
0.999656
0.996776
0.995928
0.993045
0.99483
1.00658
1.00921
1.00345
1.00259
1.0004
1.00095
0.999187
0.9977
0.999738
0.993426
0.996805
1.00697
1.00157
1.00706
1.00525
0.99971
0.998855
1.00033
0.996839
0.998098
0.992142
1.00482
1.00599
1.00417
1.0057
0.999458
1.0001
0.996753
0.999283
0.997994
0.993015
1.00506
1.00441
1.00218
0.999132
1.00208
1.00099
0.998669
1.0013
0.997515
0.996165
1.0032
1.00039
1.0023
1.00013
1.00104
1.00258
0.998978
1.00001
0.999298
0.998034
1.00155
1.0021
1.00066
1.00028
0.998176
1.00058
1.00253
1.00232
1.00169
0.998704
0.999069
0.999644
1.00014
0.999892
0.99998
0.999752
1.00461
1.00075
1.00323
1.00075
0.997087
1.00025
0.999729
1.00034
0.998709
0.999501
1.00065
1.00522
1.00575
1.00302
0.997306
1.00129
0.999426
0.998409
0.999441
1.00119
1.00075
1.00428
1.00443
1.00411
0.995598
0.995815
0.998367
0.999152
1.00335
1.00163
1.00591
1.00265
1.00671
1.00612
0.991841
1.00271
0.999278
0.997492
1.00086
1.00272
0.999655
1.0061
1.00632
1.00382
0.995905
0.996893
0.997269
0.99893
1.00176
1.00048
1.00342
1.0058
1.00698
1.00523
0.994613
0.99705
0.997095
0.99842
1.0008
0.999004
1.00429
1.00215
1.00623
1.00586
0.989254
0.999629
0.995539
1.00106
0.997719
1.00364
1.00082
1.00354
1.00771
1.00792
0.987459
0.99968
0.995092
1.00055
0.998982
1.00412
1.00657
1.00171
1.00807
1.00061
0.987663
0.998304
0.99629
0.996929
1.00325
1.00146
1.00693
1.00609
1.00025
1.00452
0.987077
0.997972
0.997948
1.00108
0.99977
1.00523
1.00067
1.00428
1.0047
1.00364
0.992494
0.995996
0.998086
1.00048
1.0008
1.0007
1.00591
0.997426
1.00169
1.00527
0.993842
0.99204
0.998871
0.995979
1.00099
0.998636
1.00164
1.00272
0.999749
1.00614
0.996392
0.993857
0.995101
0.997537
0.996711
1.0018
0.996434
1.00435
1.00001
1.00767
0.99557
0.997351
0.995276
0.998804
0.997578
0.999308
1.0029
1.0017
1.00816
0.994104
0.992415
0.995857
0.998101
0.996351
1.00118
1.00065
1.00259
0.997899
0.999514
1.00304
0.996892
0.994225
0.995415
0.994904
1.00011
1.00202
1.00178
1.00373
0.997369
1.00219
0.99731
0.995962
0.994337
0.997758
0.997771
1.0003
0.99919
1.00432
1.00031
1.00293
0.991893
0.99705
0.997366
0.998847
0.997717
1.00036
0.999827
0.997767
1.00376
1.00352
0.996685
0.9922
0.997322
0.995592
0.999053
0.996633
1.00042
1.00136
1.00227
1.00544
0.996098
0.993837
0.994223
0.997184
0.995599
0.997656
0.997797
1.0028
1.00096
1.00732
0.995617
0.996659
0.992204
0.997935
0.994832
0.997809
0.996595
1.00053
1.00989
0.998856
0.994484
0.996146
0.997469
0.99467
0.998635
0.998408
0.998705
0.997414
1.00313
1.00202
0.998289
0.996916
0.99667
0.996845
0.999774
0.996789
1.00096
0.999661
0.991634
1.01103
0.99333
0.998791
0.996904
0.998824
0.998974
0.999196
0.997941
1.00475
0.995003
1.00126
0.998834
0.998002
0.998361
0.999547
0.999242
1.00183
0.999434
1.00203
1.00574
0.991497
0.99776
0.998708
0.997666
1.00009
0.999959
0.999376
1.00464
0.997251
0.999009
1.00185
0.995205
0.997464
0.998633
0.995902
0.995974
0.997224
1.0016
1.00095
1.00339
1.00467
0.999549
0.996054
0.997323
0.995545
0.997051
0.997865
1.00332
0.998622
1.00107
1.00555
0.994956
0.997478
0.997544
0.997877
0.998747
0.999333
1.0018
1.01138
0.992916
0.996644
0.997697
0.997976
0.998048
0.998249
0.998561
1.00408
0.991331
1.00537
1.00272
0.999004
0.993824
1.0025
0.998669
1.00125
1.00004
1.00108
1.00039
0.992111
1.00671
0.995928
0.994672
1.00069
0.999468
1.00061
1.00167
0.998246
1.00583
0.987
0.999509
1.01515
1.00117
0.998822
1.00282
1.00042
1.00206
0.995544
1.00101
1.00725
0.987532
1.00069
1.00068
1.00126
1.00275
1.00225
0.998788
1.00339
0.990448
1.0052
0.996291
1.00216
1.00163
1.00134
1.00052
1.0023
0.998866
0.999763
0.996847
0.999857
1.01629
0.981737
0.999649
1.00455
0.999631
1.00116
1.00379
1.00336
1.00496
0.985369
0.994835
1.01959
1.00177
1.00334
1.00136
1.0019
1.00372
0.998199
1.00142
0.991458
0.988188
1.01037
1.00327
1.0048
1.00631
1.00513
1.00518
1.00545
0.99998
1.01509
0.982018
0.976916
1.00509
1.00768
1.00718
1.00798
1.00475
1.00919
0.996677
0.994946
0.992462
0.985516
1.00442
1.00312
1.00621
1.00688
1.00376
1.00941
1.00132
0.992904
0.992059
0.992348
1.00345
1.00373
1.00098
1.00899
1.00664
0.996445
1.00342
0.991994
0.996938
0.988931
1.00296
1.0009
1.00538
1.00105
1.00855
0.994239
0.994272
0.99989
0.990778
1.0024
1.0017
1.00181
1.00404
1.00508
0.999077
1.00621
0.988577
0.993587
0.99546
1.00171
1.00123
1.00165
1.00081
1.00229
0.997133
1.00223
1.00052
0.996116
1.00023
0.992903
1.00096
0.999075
0.998186
1.00048
1.00019
0.999118
1.00396
0.993308
1.00074
0.996445
0.999363
1.00119
1.00015
0.99628
1.00382
0.996988
1.00212
1.00341
0.991961
0.998339
1.00022
0.996655
1.00187
1.00029
1.00294
1.00197
0.995809
1.00181
0.994306
0.997294
1.00225
0.996534
0.992515
1.00222
0.993911
1.01298
1.00159
0.999261
0.997007
0.993469
0.999488
1.00108
0.9993
0.999191
1.0057
0.995583
1.00678
0.992399
0.997291
0.996396
0.997331
1.00124
1.00141
0.995248
1.00251
0.998366
1.00822
0.999095
0.998938
0.994916
0.999428
0.996061
0.999638
1.00228
1.00893
1.00639
0.991905
1.00681
0.994117
0.995878
0.99918
0.996469
0.999497
1.00386
1.00769
1.01098
0.99612
0.996151
0.999341
0.993271
1.00089
0.99221
0.997996
1.00003
1.00901
1.01175
1.00294
0.993878
0.998081
0.995398
0.997129
0.995266
0.995253
1.01028
1.01013
0.996596
1.01279
0.995314
0.995024
0.994638
0.996461
0.998533
0.995624
1.01657
1.01093
1.00059
1.00048
1.00521
0.99153
0.994271
0.993393
0.99149
1.01248
0.99832
1.01145
1.01837
0.99453
0.997712
0.995183
0.992111
0.998178
0.983405
1.0096
1.01196
1.00309
1.0151
1.00712
0.993186
0.996419
0.993243
0.991705
1.00882
0.994255
1.01452
1.01296
0.996197
1.0164
0.996115
0.992919
0.991511
0.987307
1.00691
1.00795
1.00552
1.0153
1.00359
1.00535
1.00125
0.991027
0.989029
0.994353
1.00386
1.01299
1.00548
1.00424
1.01408
0.994989
1.00608
0.986514
0.990213
0.99907
1.00155
0.99748
1.00842
1.00341
1.01855
1.00562
0.994302
0.987191
1.00045
0.99365
1.00764
1.00038
1.01437
1.01274
0.996904
1.0162
0.996681
0.986149
0.99195
0.995428
1.00042
1.00797
1.00599
1.01795
1.00556
0.998518
0.996251
0.996522
0.9913
0.999308
0.99446
1.01024
1.01267
1.00471
1.01482
0.99574
0.996501
0.994759
0.987867
0.992131
1.00922
1.00099
1.01076
1.00328
1.0143
0.998397
0.993495
0.990261
0.995533
0.994268
1.00097
1.00367
1.01267
1.01545
1.00177
1.01044
0.993058
0.98596
0.988062
0.996106
0.991417
1.01726
1.00539
1.0171
1.00335
0.996028
1.00085
0.992418
0.984409
0.995266
0.994686
1.01301
1.0144
1.00432
1.01718
0.992615
0.99799
0.986529
0.982597
0.991358
1.00924
1.0015
1.01573
1.0131
0.999811
0.996861
0.990405
0.989601
0.99253
0.994218
0.996971
1.01169
1.00482
1.01716
1.00078
1.00244
0.993581
0.982892
0.988476
0.994792
0.991821
1.01447
1.01248
1.01011
1.00555
1.00219
0.992521
0.987455
0.986892
0.988976
1.00458
0.999024
1.02059
1.00436
1.01105
1.00121
0.995554
0.985187
0.983635
0.986782
1.00111
1.01204
1.00554
1.01239
1.00598
1.01083
0.983742
0.985512
0.987367
0.99015
0.989325
1.01596
1.00839
1.01346
1.0085
0.997856
0.998156
0.981559
0.98355
0.990771
0.999617
1.00227
1.02021
1.00782
1.01242
1.0044
0.993086
0.986563
0.980043
0.980887
1.00055
1.01239
1.01041
1.01501
1.01213
1.00491
0.99182
0.98279
0.976979
0.985263
0.99233
1.01761
1.01003
1.01617
1.0165
1.00151
0.998095
0.979183
0.980192
0.983174
0.994988
1.01477
1.01559
1.01587
1.01433
1.00514
0.990898
0.984627
0.974585
0.971415
0.998025
1.01364
1.02095
1.0155
1.01771
1.00041
0.991048
0.984437
0.975582
0.970984
0.99895
1.02028
1.01385
1.02209
1.00997
1.00066
0.998793
0.978689
0.979842
0.972652
1.00035
1.01865
1.01898
1.01176
1.01244
1.00503
0.997315
0.975802
0.983997
0.970565
1.00096
1.00902
1.02227
1.01691
1.01156
1.01293
0.989219
0.988066
0.978393
0.971291
0.99955
1.01326
1.01718
1.01903
1.01235
1.00389
0.995483
0.986997
0.979387
0.971153
0.999043
1.01243
1.01124
1.01602
1.01705
1.0052
1.00147
0.98326
0.976002
0.966829
1.00511
1.01291
1.01885
1.01332
1.0156
0.999802
0.988693
0.986586
0.983764
0.97063
1.0052
1.00594
1.01191
1.01748
1.00472
1.00497
0.995775
0.993085
0.980302
0.973038
1.00907
1.01137
1.01188
1.00581
1.01163
1.00132
0.991261
0.994634
0.976556
0.973452
1.01599
1.006
1.00838
0.993499
0.998955
0.992793
0.999224
0.990816
0.982709
0.991428
0.998498
0.952519
0.946933
0.966783
0.979415
0.995471
0.981535
1.00505
0.999889
0.894839
0.860003
0.768208
0.820113
0.869661
0.915581
0.95492
0.978168
0.954224
0.994471
0.592448
0.534069
0.416338
0.52066
0.659219
0.718771
0.752166
0.741852
0.765193
0.722897
0.150599
0.154776
-0.0416519
0.0915694
0.100209
0.147875
0.153727
0.143476
0.136594
0.149922
	1	12	13	2
	2	13	14	3
	3	14	15	4
	4	15	16	5
	5	16	17	6
	6	17	18	7
	7	18	19	8
	8	19	20	9
	9	20	21	10
	10	21	22	11
	12	23	24	13
	13	24	25	14
	14	25	26	15
	15	26	27	16
	16	27	28	17
	17	28	29	18
	18	29	30	19
	19	30	31	20
	20	31	32	21
	21	32	33	22
	23	34	35	24
	24	35	36	25
	25	36	37	26
	26	37	38	27
	27	38	39	28
	28	39	40	29
	29	40	41	30
	30	41	42	31
	31	42	43	32
	32	43	44	33
	34	45	46	35
	35	46	47	36
	36	47	48	37
	37	48	49	38
	38	49	50	39
	39	50	51	40
	40	51	52	41
	41	52	53	42
	42	53	54	43
	43	54	55	44
	45	56	57	46
	46	57	58	47
	47	58	59	48
	48	59	60	49
	49	60	61	50
	50	61	62	51
	51	62	63	52
	52	63	64	53
	53	64	65	54
	54	65	66	55
	56	67	68	57
	57	68	69	58
	58	69	70	59
	59	70	71	60
	60	71	72	61
	61	72	73	62
	62	73	74	63
	63	74	75	64
	64	75	76	65
	65	76	77	66
	67	78	79	68
	68	79	80	69
	69	80	81	70
	70	81	82	71
	71	82	83	72
	72	83	84	73
	73	84	85	74
	74	85	86	75
	75	86	87	76
	76	87	88	77
	78	89	90	79
	79	90	91	80
	80	91	92	81
	81	92	93	82
	82	93	94	83
	83	94	95	84
	84	95	96	85
	85	96	97	86