VARIABLES = X, Y, e
ZONE N = 6561, E = 6400
ZONETYPE = FEQUADRILATERAL
DATAPACKING = BLOCK
varlocation=([3]=cellcentered)
-1.1
-1.1
-1.1
-1.1
-1.1
-1.1
-1.1
-1.1
-1.1
-1.1
-1.1
-1.1
-1.1
-1.1
-1.1
-1.1
-1.1
-1.1
-1.1
-1.1
-1.1
-1.1
-1.1
-1.1
-1.1
-1.1
-1.1
-1.1
-1.1
-1.1
-1.1
-1.1
-1.1
-1.1
-1.1
-1.1
-1.1
-1.1
-1.1
-1.1
-1.1
-1.1
-1.1
-1.1
-1.1
-1.1
-1.1
-1.1
-1.1
-1.1
-1.1
-1.1
-1.1
-1.1
-1.1
-1.1
-1.1
-1.1
-1.1
-1.1
-1.1
-1.1
-1.1
-1.1
-1.1
-1.1
-1.1
-1.1
-1.1
-1.1
-1.1
-1.1
-1.1
-1.1
-1.1
-1.1
-1.1
-1.1
-1.1
-1.1
-1.1
-1.0725
-1.0725
-1.0725
-1.0725
-1.0725
-1.0725
-1.0725
-1.0725
-1.0725
-1.0725
-1.0725
-1.0725
-1.0725
-1.0725
-1.0725
-1.0725
-1.0725
-1.0725
-1.0725
-1.0725
-1.0725
-1.0725
-1.0725
-1.0725
-1.0725
-1.0725
-1.0725
-1.0725
-1.0725
-1.0725
-1.0725
-1.0725
-1.0725
-1.0725
-1.0725
-1.0725
-1.0725
-1.0725
-1.0725
-1.0725
-1.0725
-1.0725
-1.0725
-1.0725
-1.0725
-1.0725
-1.0725
-1.0725
-1.0725
-1.0725
-1.0725
-1.0725
-1.0725
-1.0725
-1.0725
-1.0725
-1.0725
-1.0725
-1.0725
-1.0725
-1.0725
-1.0725
-1.0725
-1.0725
-1.0725
-1.0725
-1.0725
-1.0725
-1.0725
-1.0725
-1.0725
-1.0725
-1.0725
-1.0725
-1.0725
-1.0725
-1.0725
-1.0725
-1.0725
-1.0725
-1.0725
-1.045
-1.045
-1.045
-1.045
-1.045
-1.045
-1.045
-1.045
-1.045
-1.045
-1.045
-1.045
-1.045
-1.045
-1.045
-1.045
-1.045
-1.045
-1.045
-1.045
-1.045
-1.045
-1.045
-1.045
-1.045
-1.045
-1.045
-1.045
-1.045
-1.045
-1.045
-1.045
-1.045
-1.045
-1.045
-1.045
-1.045
-1.045
-1.045
-1.045
-1.045
-1.045
-1.045
-1.045
-1.045
-1.045
-1.045
-1.045
-1.045
-1.045
-1.045
-1.045
-1.045
-1.045
-1.045
-1.045
-1.045
-1.045
-1.045
-1.045
-1.045
-1.045
-1.045
-1.045
-1.045
-1.045
-1.045
-1.045
-1.045
-1.045
-1.045
-1.045
-1.045
-1.045
-1.045
-1.045
-1.045
-1.045
-1.045
-1.045
-1.045
-1.0175
-1.0175
-1.0175
-1.0175
-1.0175
-1.0175
-1.0175
-1.0175
-1.0175
-1.0175
-1.0175
-1.0175
-1.0175
-1.0175
-1.0175
-1.0175
-1.0175
-1.0175
-1.0175
-1.0175
-1.0175
-1.0175
-1.0175
-1.0175
-1.0175
-1.0175
-1.0175
-1.0175
-1.0175
-1.0175
-1.0175
-1.0175
-1.0175
-1.0175
-1.0175
-1.0175
-1.0175
-1.0175
-1.0175
-1.0175
-1.0175
-1.0175
-1.0175
-1.0175
-1.0175
-1.0175
-1.0175
-1.0175
-1.0175
-1.0175
-1.0175
-1.0175
-1.0175
-1.0175
-1.0175
-1.0175
-1.0175
-1.0175
-1.0175
-1.0175
-1.0175
-1.0175
-1.0175
-1.0175
-1.0175
-1.0175
-1.0175
-1.0175
-1.0175
-1.0175
-1.0175
-1.0175
-1.0175
-1.0175
-1.0175
-1.0175
-1.0175
-1.0175
-1.0175
-1.0175
-1.0175
-0.99
-0.99
-0.99
-0.99
-0.99
-0.99
-0.99
-0.99
-0.99
-0.99
-0.99
-0.99
-0.99
-0.99
-0.99
-0.99
-0.99
-0.99
-0.99
-0.99
-0.99
-0.99
-0.99
-0.99
-0.99
-0.99
-0.99
-0.99
-0.99
-0.99
-0.99
-0.99
-0.99
-0.99
-0.99
-0.99
-0.99
-0.99
-0.99
-0.99
-0.99
-0.99
-0.99
-0.99
-0.99
-0.99
-0.99
-0.99
-0.99
-0.99
-0.99
-0.99
-0.99
-0.99
-0.99
-0.99
-0.99
-0.99
-0.99
-0.99
-0.99
-0.99
-0.99
-0.99
-0.99
-0.99
-0.99
-0.99
-0.99
-0.99
-0.99
-0.99
-0.99
-0.99
-0.99
-0.99
-0.99
-0.99
-0.99
-0.99
-0.99
-0.9625
-0.9625
-0.9625
-0.9625
-0.9625
-0.9625
-0.9625
-0.9625
-0.9625
-0.9625
-0.9625
-0.9625
-0.9625
-0.9625
-0.9625
-0.9625
-0.9625
-0.9625
-0.9625
-0.9625
-0.9625
-0.9625
-0.9625
-0.9625
-0.9625
-0.9625
-0.9625
-0.9625
-0.9625
-0.9625
-0.9625
-0.9625
-0.9625
-0.9625
-0.9625
-0.9625
-0.9625
-0.9625
-0.9625
-0.9625
-0.9625
-0.9625
-0.9625
-0.9625
-0.9625
-0.9625
-0.9625
-0.9625
-0.9625
-0.9625
-0.9625
-0.9625
-0.9625
-0.9625
-0.9625
-0.9625
-0.9625
-0.9625
-0.9625
-0.9625
-0.9625
-0.9625
-0.9625
-0.9625
-0.9625
-0.9625
-0.9625
-0.9625
-0.9625
-0.9625
-0.9625
-0.9625
-0.9625
-0.9625
-0.9625
-0.9625
-0.9625
-0.9625
-0.9625
-0.9625
-0.9625
-0.935
-0.935
-0.935
-0.935
-0.935
-0.935
-0.935
-0.935
-0.935
-0.935
-0.935
-0.935
-0.935
-0.935
-0.935
-0.935
-0.935
-0.935
-0.935
-0.935
-0.935
-0.935
-0.935
-0.935
-0.935
-0.935
-0.935
-0.935
-0.935
-0.935
-0.935
-0.935
-0.935
-0.935
-0.935
-0.935
-0.935
-0.935
-0.935
-0.935
-0.935
-0.935
-0.935
-0.935
-0.935
-0.935
-0.935
-0.935
-0.935
-0.935
-0.935
-0.935
-0.935
-0.935
-0.935
-0.935
-0.935
-0.935
-0.935
-0.935
-0.935
-0.935
-0.935
-0.935
-0.935
-0.935
-0.935
-0.935
-0.935
-0.935
-0.935
-0.935
-0.935
-0.935
-0.935
-0.935
-0.935
-0.935
-0.935
-0.935
-0.935
-0.9075
-0.9075
-0.9075
-0.9075
-0.9075
-0.9075
-0.9075
-0.9075
-0.9075
-0.9075
-0.9075
-0.9075
-0.9075
-0.9075
-0.9075
-0.9075
-0.9075
-0.9075
-0.9075
-0.9075
-0.9075
-0.9075
-0.9075
-0.9075
-0.9075
-0.9075
-0.9075
-0.9075
-0.9075
-0.9075
-0.9075
-0.9075
-0.9075
-0.9075
-0.9075
-0.9075
-0.9075
-0.9075
-0.9075
-0.9075
-0.9075
-0.9075
-0.9075
-0.9075
-0.9075
-0.9075
-0.9075
-0.9075
-0.9075
-0.9075
-0.9075
-0.9075
-0.9075
-0.9075
-0.9075
-0.9075
-0.9075
-0.9075
-0.9075
-0.9075
-0.9075
-0.9075
-0.9075
-0.9075
-0.9075
-0.9075
-0.9075
-0.9075
-0.9075
-0.9075
-0.9075
-0.9075
-0.9075
-0.9075
-0.9075
-0.9075
-0.9075
-0.9075
-0.9075
-0.9075
-0.9075
-0.88
-0.88
-0.88
-0.88
-0.88
-0.88
-0.88
-0.88
-0.88
-0.88
-0.88
-0.88
-0.88
-0.88
-0.88
-0.88
-0.88
-0.88
-0.88
-0.88
-0.88
-0.88
-0.88
-0.88
-0.88
-0.88
-0.88
-0.88
-0.88
-0.88
-0.88
-0.88
-0.88
-0.88
-0.88
-0.88
-0.88
-0.88
-0.88
-0.88
-0.88
-0.88
-0.88
-0.88
-0.88
-0.88
-0.88
-0.88
-0.88
-0.88
-0.88
-0.88
-0.88
-0.88
-0.88
-0.88
-0.88
-0.88
-0.88
-0.88
-0.88
-0.88
-0.88
-0.88
-0.88
-0.88
-0.88
-0.88
-0.88
-0.88
-0.88
-0.88
-0.88
-0.88
-0.88
-0.88
-0.88
-0.88
-0.88
-0.88
-0.88
-0.8525
-0.8525
-0.8525
-0.8525
-0.8525
-0.8525
-0.8525
-0.8525
-0.8525
-0.8525
-0.8525
-0.8525
-0.8525
-0.8525
-0.8525
-0.8525
-0.8525
-0.8525
-0.8525
-0.8525
-0.8525
-0.8525
-0.8525
-0.8525
-0.8525
-0.8525
-0.8525
-0.8525
-0.8525
-0.8525
-0.8525
-0.8525
-0.8525
-0.8525
-0.8525
-0.8525
-0.8525
-0.8525
-0.8525
-0.8525
-0.8525
-0.8525
-0.8525
-0.8525
-0.8525
-0.8525
-0.8525
-0.8525
-0.8525
-0.8525
-0.8525
-0.8525
-0.8525
-0.8525
-0.8525
-0.8525
-0.8525
-0.8525
-0.8525
-0.8525
-0.8525
-0.8525
-0.8525
-0.8525
-0.8525
-0.8525
-0.8525
-0.8525
-0.8525
-0.8525
-0.8525
-0.8525
-0.8525
-0.8525
-0.8525
-0.8525
-0.8525
-0.8525
-0.8525
-0.8525
-0.8525
-0.825
-0.825
-0.825
-0.825
-0.825
-0.825
-0.825
-0.825
-0.825
-0.825
-0.825
-0.825
-0.825
-0.825
-0.825
-0.825
-0.825
-0.825
-0.825
-0.825
-0.825
-0.825
-0.825
-0.825
-0.825
-0.825
-0.825
-0.825
-0.825
-0.825
-0.825
-0.825
-0.825
-0.825
-0.825
-0.825
-0.825
-0.825
-0.825
-0.825
-0.825
-0.825
-0.825
-0.825
-0.825
-0.825
-0.825
-0.825
-0.825
-0.825
-0.825
-0.825
-0.825
-0.825
-0.825
-0.825
-0.825
-0.825
-0.825
-0.825
-0.825
-0.825
-0.825
-0.825
-0.825
-0.825
-0.825
-0.825
-0.825
-0.825
-0.825
-0.825
-0.825
-0.825
-0.825
-0.825
-0.825
-0.825
-0.825
-0.825
-0.825
-0.7975
-0.7975
-0.7975
-0.7975
-0.7975
-0.7975
-0.7975
-0.7975
-0.7975
-0.7975
-0.7975
-0.7975
-0.7975
-0.7975
-0.7975
-0.7975
-0.7975
-0.7975
-0.7975
-0.7975
-0.7975
-0.7975
-0.7975
-0.7975
-0.7975
-0.7975
-0.7975
-0.7975
-0.7975
-0.7975
-0.7975
-0.7975
-0.7975
-0.7975
-0.7975
-0.7975
-0.7975
-0.7975
-0.7975
-0.7975
-0.7975
-0.7975
-0.7975
-0.7975
-0.7975
-0.7975
-0.7975
-0.7975
-0.7975
-0.7975
-0.7975
-0.7975
-0.7975
-0.7975
-0.7975
-0.7975
-0.7975
-0.7975
-0.7975
-0.7975
-0.7975
-0.7975
-0.7975
-0.7975
-0.7975
-0.7975
-0.7975
-0.7975
-0.7975
-0.7975
-0.7975
-0.7975
-0.7975
-0.7975
-0.7975
-0.7975
-0.7975
-0.7975
-0.7975
-0.7975
-0.7975
-0.77
-0.77
-0.77
-0.77
-0.77
-0.77
-0.77
-0.77
-0.77
-0.77
-0.77
-0.77
-0.77
-0.77
-0.77
-0.77
-0.77
-0.77
-0.77
-0.77
-0.77
-0.77
-0.77
-0.77
-0.77
-0.77
-0.77
-0.77
-0.77
-0.77
-0.77
-0.77
-0.77
-0.77
-0.77
-0.77
-0.77
-0.77
-0.77
-0.77
-0.77
-0.77
-0.77
-0.77
-0.77
-0.77
-0.77
-0.77
-0.77
-0.77
-0.77
-0.77
-0.77
-0.77
-0.77
-0.77
-0.77
-0.77
-0.77
-0.77
-0.77
-0.77
-0.77
-0.77
-0.77
-0.77
-0.77
-0.77
-0.77
-0.77
-0.77
-0.77
-0.77
-0.77
-0.77
-0.77
-0.77
-0.77
-0.77
-0.77
-0.77
-0.7425
-0.7425
-0.7425
-0.7425
-0.7425
-0.7425
-0.7425
-0.7425
-0.7425
-0.7425
-0.7425
-0.7425
-0.7425
-0.7425
-0.7425
-0.7425
-0.7425
-0.7425
-0.7425
-0.7425
-0.7425
-0.7425
-0.7425
-0.7425
-0.7425
-0.7425
-0.7425
-0.7425
-0.7425
-0.7425
-0.7425
-0.7425
-0.7425
-0.7425
-0.7425
-0.7425
-0.7425
-0.7425
-0.7425
-0.7425
-0.7425
-0.7425
-0.7425
-0.7425
-0.7425
-0.7425
-0.7425
-0.7425
-0.7425
-0.7425
-0.7425
-0.7425
-0.7425
-0.7425
-0.7425
-0.7425
-0.7425
-0.7425
-0.7425
-0.7425
-0.7425
-0.7425
-0.7425
-0.7425
-0.7425
-0.7425
-0.7425
-0.7425
-0.7425
-0.7425
-0.7425
-0.7425
-0.7425
-0.7425
-0.7425
-0.7425
-0.7425
-0.7425
-0.7425
-0.7425
-0.7425
-0.715
-0.715
-0.715
-0.715
-0.715
-0.715
-0.715
-0.715
-0.715
-0.715
-0.715
-0.715
-0.715
-0.715
-0.715
-0.715
-0.715
-0.715
-0.715
-0.715
-0.715
-0.715
-0.715
-0.715
-0.715
-0.715
-0.715
-0.715
-0.715
-0.715
-0.715
-0.715
-0.715
-0.715
-0.715
-0.715
-0.715
-0.715
-0.715
-0.715
-0.715
-0.715
-0.715
-0.715
-0.715
-0.715
-0.715
-0.715
-0.715
-0.715
-0.715
-0.715
-0.715
-0.715
-0.715
-0.715
-0.715
-0.715
-0.715
-0.715
-0.715
-0.715
-0.715
-0.715
-0.715
-0.715
-0.715
-0.715
-0.715
-0.715
-0.715
-0.715
-0.715
-0.715
-0.715
-0.715
-0.715
-0.715
-0.715
-0.715
-0.715
-0.6875
-0.6875
-0.6875
-0.6875
-0.6875
-0.6875
-0.6875
-0.6875
-0.6875
-0.6875
-0.6875
-0.6875
-0.6875
-0.6875
-0.6875
-0.6875
-0.6875
-0.6875
-0.6875
-0.6875
-0.6875
-0.6875
-0.6875
-0.6875
-0.6875
-0.6875
-0.6875
-0.6875
-0.6875
-0.6875
-0.6875
-0.6875
-0.6875
-0.6875
-0.6875
-0.6875
-0.6875
-0.6875
-0.6875
-0.6875
-0.6875
-0.6875
-0.6875
-0.6875
-0.6875
-0.6875
-0.6875
-0.6875
-0.6875
-0.6875
-0.6875
-0.6875
-0.6875
-0.6875
-0.6875
-0.6875
-0.6875
-0.6875
-0.6875
-0.6875
-0.6875
-0.6875
-0.6875
-0.6875
-0.6875
-0.6875
-0.6875
-0.6875
-0.6875
-0.6875
-0.6875
-0.6875
-0.6875
-0.6875
-0.6875
-0.6875
-0.6875
-0.6875
-0.6875
-0.6875
-0.6875
-0.66
-0.66
-0.66
-0.66
-0.66
-0.66
-0.66
-0.66
-0.66
-0.66
-0.66
-0.66
-0.66
-0.66
-0.66
-0.66
-0.66
-0.66
-0.66
-0.66
-0.66
-0.66
-0.66
-0.66
-0.66
-0.66
-0.66
-0.66
-0.66
-0.66
-0.66
-0.66
-0.66
-0.66
-0.66
-0.66
-0.66
-0.66
-0.66
-0.66
-0.66
-0.66
-0.66
-0.66
-0.66
-0.66
-0.66
-0.66
-0.66
-0.66
-0.66
-0.66
-0.66
-0.66
-0.66
-0.66
-0.66
-0.66
-0.66
-0.66
-0.66
-0.66
-0.66
-0.66
-0.66
-0.66
-0.66
-0.66
-0.66
-0.66
-0.66
-0.66
-0.66
-0.66
-0.66
-0.66
-0.66
-0.66
-0.66
-0.66
-0.66
-0.6325
-0.6325
-0.6325
-0.6325
-0.6325
-0.6325
-0.6325
-0.6325
-0.6325
-0.6325
-0.6325
-0.6325
-0.6325
-0.6325
-0.6325
-0.6325
-0.6325
-0.6325
-0.6325
-0.6325
-0.6325
-0.6325
-0.6325
-0.6325
-0.6325
-0.6325
-0.6325
-0.6325
-0.6325
-0.6325
-0.6325
-0.6325
-0.6325
-0.6325
-0.6325
-0.6325
-0.6325
-0.6325
-0.6325
-0.6325
-0.632501
-0.6325
-0.6325
-0.6325
-0.6325
-0.6325
-0.6325
-0.6325
-0.6325
-0.6325
-0.6325
-0.6325
-0.6325
-0.6325
-0.6325
-0.6325
-0.6325
-0.6325
-0.6325
-0.6325
-0.6325
-0.6325
-0.6325
-0.6325
-0.6325
-0.6325
-0.6325
-0.6325
-0.6325
-0.6325
-0.6325
-0.6325
-0.6325
-0.6325
-0.6325
-0.6325
-0.6325
-0.6325
-0.6325
-0.6325
-0.6325
-0.605
-0.605
-0.605
-0.605
-0.605
-0.605
-0.605
-0.605
-0.605
-0.605
-0.605
-0.605
-0.605
-0.605
-0.605
-0.605
-0.605
-0.605
-0.605
-0.605
-0.605
-0.605
-0.605
-0.605
-0.605
-0.605
-0.605
-0.605
-0.605
-0.605
-0.605
-0.605
-0.605
-0.605
-0.605004
-0.60502
-0.605066
-0.605178
-0.60538
-0.605604
-0.60581
-0.605595
-0.605367
-0.605164
-0.605059
-0.605017
-0.605003
-0.605
-0.605
-0.605
-0.605
-0.605
-0.605
-0.605
-0.605
-0.605
-0.605
-0.605
-0.605
-0.605
-0.605
-0.605
-0.605
-0.605
-0.605
-0.605
-0.605
-0.605
-0.605
-0.605
-0.605
-0.605
-0.605
-0.605
-0.605
-0.605
-0.605
-0.605
-0.605
-0.605
-0.605
-0.5775
-0.5775
-0.5775
-0.5775
-0.5775
-0.5775
-0.5775
-0.5775
-0.5775
-0.5775
-0.5775
-0.5775
-0.5775
-0.5775
-0.5775
-0.5775
-0.5775
-0.5775
-0.5775
-0.5775
-0.5775
-0.5775
-0.5775
-0.5775
-0.5775
-0.5775
-0.5775
-0.5775
-0.5775
-0.5775
-0.5775
-0.577507
-0.577549
-0.577731
-0.578216
-0.579269
-0.581115
-0.583669
-0.586867
-0.590262
-0.592916
-0.590121
-0.586611
-0.583376
-0.580887
-0.579154
-0.57817
-0.577715
-0.577546
-0.577507
-0.5775
-0.5775
-0.5775
-0.5775
-0.5775
-0.5775
-0.5775
-0.5775
-0.5775
-0.5775
-0.5775
-0.5775
-0.5775
-0.5775
-0.5775
-0.5775
-0.5775
-0.5775
-0.5775
-0.5775
-0.5775
-0.5775
-0.5775
-0.5775
-0.5775
-0.5775
-0.5775
-0.5775
-0.5775
-0.5775
-0.5775
-0.55
-0.55
-0.55
-0.55
-0.55
-0.55
-0.55
-0.55
-0.55
-0.55
-0.55
-0.55
-0.55
-0.55
-0.55
-0.55
-0.55
-0.55
-0.55
-0.55
-0.55
-0.55
-0.55
-0.55
-0.55
-0.55
-0.55
-0.55
-0.550001
-0.550014
-0.550123
-0.550637
-0.552132
-0.555528
-0.560186
-0.565574
-0.571071
-0.576141
-0.580543
-0.584478
-0.587566
-0.584324
-0.580184
-0.575664
-0.570628
-0.565213
-0.559913
-0.55536
-0.552051
-0.550603
-0.550115
-0.550013
-0.55
-0.55
-0.55
-0.55
-0.55
-0.55
-0.55
-0.55
-0.55
-0.55
-0.55
-0.55
-0.55
-0.55
-0.55
-0.55
-0.55
-0.55
-0.55
-0.55
-0.55
-0.55
-0.55
-0.55
-0.55
-0.55
-0.55
-0.55
-0.55
-0.5225
-0.5225
-0.5225
-0.5225
-0.5225
-0.5225
-0.5225
-0.5225
-0.5225
-0.5225
-0.5225
-0.5225
-0.5225
-0.5225
-0.5225
-0.5225
-0.5225
-0.5225
-0.5225
-0.5225
-0.5225
-0.5225
-0.5225
-0.5225
-0.5225
-0.5225
-0.5225
-0.522506
-0.522587
-0.523088
-0.525113
-0.530024
-0.537248
-0.544938
-0.551916
-0.558261
-0.564272
-0.569951
-0.574988
-0.579421
-0.582898
-0.579234
-0.574565
-0.569428
-0.563832
-0.557928
-0.551646
-0.54468
-0.536955
-0.529794
-0.524998
-0.523062
-0.522583
-0.522505
-0.5225
-0.5225
-0.5225
-0.5225
-0.5225
-0.5225
-0.5225
-0.5225
-0.5225
-0.5225
-0.5225
-0.5225
-0.5225
-0.5225
-0.5225
-0.5225
-0.5225
-0.5225
-0.5225
-0.5225
-0.5225
-0.5225
-0.5225
-0.5225
-0.5225
-0.5225
-0.5225
-0.495
-0.495
-0.495
-0.495
-0.495
-0.495
-0.495
-0.495
-0.495
-0.495
-0.495
-0.495
-0.495
-0.495
-0.495
-0.495
-0.495
-0.495
-0.495
-0.495
-0.495
-0.495
-0.495
-0.495
-0.495
-0.495
-0.495018
-0.495233
-0.496507
-0.500764
-0.508437
-0.518219
-0.527732
-0.536656
-0.544528
-0.551381
-0.557674
-0.563573
-0.568972
-0.573917
-0.577793
-0.573704
-0.568517
-0.563057
-0.557258
-0.55108
-0.544264
-0.53637
-0.527431
-0.517938
-0.508213
-0.500683
-0.496473
-0.495233
-0.495019
-0.495
-0.495
-0.495
-0.495
-0.495
-0.495
-0.495
-0.495
-0.495
-0.495
-0.495
-0.495
-0.495
-0.495
-0.495
-0.495
-0.495
-0.495
-0.495
-0.495
-0.495
-0.495
-0.495
-0.495
-0.495
-0.495
-0.4675
-0.4675
-0.4675
-0.4675
-0.4675
-0.4675
-0.4675
-0.4675
-0.4675
-0.4675
-0.4675
-0.4675
-0.4675
-0.4675
-0.4675
-0.4675
-0.4675
-0.4675
-0.4675
-0.4675
-0.4675
-0.4675
-0.4675
-0.4675
-0.4675
-0.467532
-0.467881
-0.470021
-0.475857
-0.485575
-0.496281
-0.507361
-0.518237
-0.52812
-0.536639
-0.543975
-0.550632
-0.55685
-0.562603
-0.568006
-0.572266
-0.567778
-0.562136
-0.556335
-0.550228
-0.543691
-0.536387
-0.527849
-0.517965
-0.507111
-0.496081
-0.485442
-0.475908
-0.47007
-0.467898
-0.467535
-0.4675
-0.4675
-0.4675
-0.4675
-0.4675
-0.4675
-0.4675
-0.4675
-0.4675
-0.4675
-0.4675
-0.4675
-0.4675
-0.4675
-0.4675
-0.4675
-0.4675
-0.4675
-0.4675
-0.4675
-0.4675
-0.4675
-0.4675
-0.4675
-0.4675
-0.44
-0.44
-0.44
-0.44
-0.44
-0.44
-0.44
-0.44
-0.44
-0.44
-0.44
-0.44
-0.44
-0.44
-0.44
-0.44
-0.44
-0.44
-0.44
-0.44
-0.44
-0.44
-0.44
-0.44
-0.440035
-0.440464
-0.443055
-0.449759
-0.46007
-0.471531
-0.483852
-0.496115
-0.507903
-0.518823
-0.528087
-0.535926
-0.542981
-0.549598
-0.555787
-0.561664
-0.566296
-0.561427
-0.555315
-0.54908
-0.542587
-0.535663
-0.527849
-0.51858
-0.507677
-0.49594
-0.483793
-0.471683
-0.460307
-0.450003
-0.4432
-0.440502
-0.440041
-0.44
-0.44
-0.44
-0.44
-0.44
-0.44
-0.44
-0.44
-0.44
-0.44
-0.44
-0.44
-0.44
-0.44
-0.44
-0.44
-0.44
-0.44
-0.44
-0.44
-0.44
-0.44
-0.44
-0.44
-0.4125
-0.4125
-0.4125
-0.4125
-0.4125
-0.4125
-0.4125
-0.4125
-0.4125
-0.4125
-0.4125
-0.4125
-0.4125
-0.4125
-0.4125
-0.4125
-0.4125
-0.4125
-0.4125
-0.4125
-0.4125
-0.4125
-0.4125
-0.412525
-0.412927
-0.415499
-0.422502
-0.432552
-0.444255
-0.457034
-0.470212
-0.483603
-0.496562
-0.508561
-0.51877
-0.527152
-0.534652
-0.541708
-0.548414
-0.554829
-0.559826
-0.554585
-0.547941
-0.541193
-0.53427
-0.526908
-0.518534
-0.508368
-0.496429
-0.483569
-0.470382
-0.4574
-0.444721
-0.433032
-0.422909
-0.415705
-0.412977
-0.41253
-0.4125
-0.4125
-0.4125
-0.4125
-0.4125
-0.4125
-0.4125
-0.4125
-0.4125
-0.4125
-0.4125
-0.4125
-0.4125
-0.4125
-0.4125
-0.4125
-0.4125
-0.4125
-0.4125
-0.4125
-0.4125
-0.4125
-0.4125
-0.385
-0.385
-0.385
-0.385
-0.385
-0.385
-0.385
-0.385
-0.385
-0.385
-0.385
-0.385
-0.385
-0.385
-0.385
-0.385
-0.385
-0.385
-0.385
-0.385
-0.385
-0.385
-0.385012
-0.385293
-0.387391
-0.394016
-0.403932
-0.415414
-0.427818
-0.441177
-0.455102
-0.469489
-0.483794
-0.497146
-0.508487
-0.517571
-0.525574
-0.533101
-0.540374
-0.547409
-0.552762
-0.547158
-0.539908
-0.532597
-0.525216
-0.517343
-0.508279
-0.497011
-0.483751
-0.46966
-0.455485
-0.441759
-0.428471
-0.416038
-0.404499
-0.394497
-0.387624
-0.38534
-0.385015
-0.385
-0.385
-0.385
-0.385
-0.385
-0.385
-0.385
-0.385
-0.385
-0.385
-0.385
-0.385
-0.385
-0.385
-0.385
-0.385
-0.385
-0.385
-0.385
-0.385
-0.385
-0.385
-0.3575
-0.3575
-0.3575
-0.3575
-0.3575
-0.3575
-0.3575
-0.3575
-0.3575
-0.3575
-0.3575
-0.3575
-0.3575
-0.3575
-0.3575
-0.3575
-0.3575
-0.3575
-0.3575
-0.3575
-0.3575
-0.357503
-0.357652
-0.359028
-0.364583
-0.373912
-0.385196
-0.397437
-0.410107
-0.423774
-0.438364
-0.453718
-0.469329
-0.484192
-0.497066
-0.507134
-0.515669
-0.523678
-0.531552
-0.539282
-0.54504
-0.539031
-0.531103
-0.5232
-0.515353
-0.506926
-0.496912
-0.484159
-0.469472
-0.454132
-0.439007
-0.424576
-0.410925
-0.398182
-0.385928
-0.374595
-0.365115
-0.359236
-0.357686
-0.357505
-0.3575
-0.3575
-0.3575
-0.3575
-0.3575
-0.3575
-0.3575
-0.3575
-0.3575
-0.3575
-0.3575
-0.3575
-0.3575
-0.3575
-0.3575
-0.3575
-0.3575
-0.3575
-0.3575
-0.3575
-0.3575
-0.33
-0.33
-0.33
-0.33
-0.33
-0.33
-0.33
-0.33
-0.33
-0.33
-0.33
-0.33
-0.33
-0.33
-0.33
-0.33
-0.33
-0.33
-0.33
-0.33
-0.33
-0.330052
-0.330796
-0.33485
-0.342898
-0.353521
-0.365468
-0.377969
-0.390909
-0.404772
-0.419907
-0.436015
-0.452643
-0.469391
-0.484175
-0.495604
-0.504774
-0.513303
-0.521824
-0.530312
-0.536539
-0.53007
-0.521411
-0.512867
-0.50452
-0.495444
-0.48414
-0.469537
-0.453137
-0.436619
-0.420789
-0.405646
-0.391882
-0.378868
-0.366349
-0.354407
-0.343695
-0.335377
-0.330944
-0.33007
-0.330001
-0.33
-0.33
-0.33
-0.33
-0.33
-0.33
-0.33
-0.33
-0.33
-0.33
-0.33
-0.33
-0.33
-0.33
-0.33
-0.33
-0.33
-0.33
-0.33
-0.33
-0.3025
-0.3025
-0.3025
-0.3025
-0.3025
-0.3025
-0.3025
-0.3025
-0.3025
-0.3025
-0.3025
-0.3025
-0.3025
-0.3025
-0.3025
-0.3025
-0.3025
-0.3025
-0.3025
-0.3025
-0.302509
-0.302795
-0.305148
-0.311582
-0.32107
-0.332269
-0.344216
-0.356819
-0.369909
-0.38411
-0.399432
-0.416076
-0.433858
-0.452251
-0.469218
-0.48263
-0.49275
-0.501892
-0.511038
-0.52033
-0.527141
-0.520108
-0.510676
-0.50152
-0.492554
-0.48256
-0.469393
-0.452671
-0.43471
-0.416942
-0.400468
-0.385118
-0.371054
-0.357856
-0.345261
-0.333317
-0.322057
-0.312352
-0.305582
-0.302876
-0.302514
-0.3025
-0.3025
-0.3025
-0.3025
-0.3025
-0.3025
-0.3025
-0.3025
-0.3025
-0.3025
-0.3025
-0.3025
-0.3025
-0.3025
-0.3025
-0.3025
-0.3025
-0.3025
-0.3025
-0.3025
-0.275
-0.275
-0.275
-0.275
-0.275
-0.275
-0.275
-0.275
-0.275
-0.275
-0.275
-0.275
-0.275
-0.275
-0.275
-0.275
-0.275
-0.275
-0.275
-0.275
-0.275059
-0.275996
-0.280349
-0.288128
-0.298258
-0.309363
-0.321216
-0.333732
-0.347029
-0.361254
-0.376683
-0.39401
-0.412649
-0.432341
-0.451827
-0.467879
-0.47949
-0.489164
-0.499076
-0.509156
-0.516717
-0.508962
-0.498778
-0.4889
-0.479378
-0.467906
-0.452043
-0.432995
-0.413653
-0.394975
-0.377876
-0.362501
-0.348232
-0.33497
-0.322437
-0.310565
-0.299398
-0.289097
-0.281006
-0.276248
-0.275085
-0.275001
-0.275
-0.275
-0.275
-0.275
-0.275
-0.275
-0.275
-0.275
-0.275
-0.275
-0.275
-0.275
-0.275
-0.275
-0.275
-0.275
-0.275
-0.275
-0.275
-0.2475
-0.2475
-0.2475
-0.2475
-0.2475
-0.2475
-0.2475
-0.2475
-0.2475
-0.2475
-0.2475
-0.2475
-0.2475
-0.2475
-0.2475
-0.2475
-0.2475
-0.2475
-0.2475
-0.247504
-0.247705
-0.249816
-0.255464
-0.263861
-0.273921
-0.284729
-0.296129
-0.308427
-0.321659
-0.335964
-0.351814
-0.369292
-0.389076
-0.409444
-0.431367
-0.450681
-0.464492
-0.475089
-0.485827
-0.496689
-0.50511
-0.496529
-0.485575
-0.474926
-0.464484
-0.450679
-0.43187
-0.410456
-0.3898
-0.370524
-0.352975
-0.337378
-0.323185
-0.309823
-0.297536
-0.286025
-0.275135
-0.264964
-0.256284
-0.250271
-0.247792
-0.247507
-0.2475
-0.2475
-0.2475
-0.2475
-0.2475
-0.2475
-0.2475
-0.2475
-0.2475
-0.2475
-0.2475
-0.2475
-0.2475
-0.2475
-0.2475
-0.2475
-0.2475
-0.2475
-0.2475
-0.22
-0.22
-0.22
-0.22
-0.22
-0.22
-0.22
-0.22
-0.22
-0.22
-0.22
-0.22
-0.22
-0.22
-0.22
-0.22
-0.22
-0.22
-0.22
-0.22001
-0.220554
-0.22373
-0.229897
-0.238307
-0.247808
-0.258056
-0.269047
-0.280895
-0.293755
-0.308117
-0.324263
-0.34203
-0.361857
-0.383075
-0.406866
-0.429846
-0.447047
-0.459438
-0.470822
-0.48281
-0.492147
-0.482668
-0.470661
-0.459353
-0.447128
-0.429981
-0.407859
-0.384366
-0.362916
-0.343158
-0.325332
-0.309789
-0.295423
-0.282461
-0.270514
-0.25948
-0.249094
-0.239474
-0.230824
-0.22433
-0.220746
-0.220018
-0.22
-0.22
-0.22
-0.22
-0.22
-0.22
-0.22
-0.22
-0.22
-0.22
-0.22
-0.22
-0.22
-0.22
-0.22
-0.22
-0.22
-0.22
-0.22
-0.1925
-0.1925
-0.1925
-0.1925
-0.1925
-0.1925
-0.1925
-0.1925
-0.1925
-0.1925
-0.1925
-0.1925
-0.1925
-0.1925
-0.1925
-0.1925
-0.1925
-0.1925
-0.1925
-0.192519
-0.19352
-0.197255
-0.203333
-0.211193
-0.219866
-0.229498
-0.239984
-0.251139
-0.263585
-0.277502
-0.292723
-0.30996
-0.330805
-0.353199
-0.377557
-0.403995
-0.426167
-0.441482
-0.453978
-0.467147
-0.47789
-0.466999
-0.453884
-0.441488
-0.426308
-0.404081
-0.37845
-0.354788
-0.33145
-0.311798
-0.294458
-0.279262
-0.265353
-0.252851
-0.241496
-0.23095
-0.221235
-0.21237
-0.204319
-0.197919
-0.19382
-0.192549
-0.1925
-0.1925
-0.1925
-0.1925
-0.1925
-0.1925
-0.1925
-0.1925
-0.1925
-0.1925
-0.1925
-0.1925
-0.1925
-0.1925
-0.1925
-0.1925
-0.1925
-0.1925
-0.1925
-0.165
-0.165
-0.165
-0.165
-0.165
-0.165
-0.165
-0.165
-0.165
-0.165
-0.165
-0.165
-0.165
-0.165
-0.165
-0.165
-0.165
-0.165
-0.165
-0.165073
-0.166421
-0.170133
-0.175741
-0.182693
-0.19036
-0.19906
-0.208602
-0.219111
-0.230762
-0.243894
-0.258549
-0.274987
-0.296637
-0.320012
-0.344753
-0.372558
-0.400071
-0.419836
-0.43484
-0.449337
-0.462267
-0.449179
-0.434799
-0.419943
-0.400205
-0.372832
-0.346256
-0.321348
-0.296762
-0.276774
-0.259912
-0.24504
-0.232247
-0.220677
-0.210046
-0.200436
-0.19172
-0.183834
-0.1767
-0.1708
-0.166786
-0.165137
-0.164999
-0.165
-0.165
-0.165
-0.165
-0.165
-0.165
-0.165
-0.165
-0.165
-0.165
-0.165
-0.165
-0.165
-0.165
-0.165
-0.165
-0.165
-0.165
-0.1375
-0.1375
-0.1375
-0.1375
-0.1375
-0.1375
-0.1375
-0.1375
-0.1375
-0.1375
-0.1375
-0.1375
-0.1375
-0.1375
-0.1375
-0.1375
-0.1375
-0.1375
-0.137498
-0.137653
-0.139149
-0.142496
-0.147386
-0.153266
-0.159791
-0.167119
-0.175439
-0.184686
-0.195041
-0.206736
-0.22025
-0.236421
-0.256239
-0.278812
-0.304998
-0.334065
-0.365153
-0.392819
-0.411977
-0.428903
-0.444689
-0.428678
-0.411975
-0.392978
-0.365642
-0.335363
-0.306684
-0.279504
-0.256246
-0.237417
-0.221525
-0.208066
-0.196441
-0.186051
-0.176697
-0.168333
-0.160905
-0.154246
-0.148255
-0.143127
-0.139528
-0.137744
-0.137498
-0.1375
-0.1375
-0.1375
-0.1375
-0.1375
-0.1375
-0.1375
-0.1375
-0.1375
-0.1375
-0.1375
-0.1375
-0.1375
-0.1375
-0.1375
-0.1375
-0.1375
-0.1375
-0.11
-0.11
-0.11
-0.11
-0.11
-0.11
-0.11
-0.11
-0.11
-0.11
-0.11
-0.11
-0.11
-0.11
-0.11
-0.11
-0.11
-0.11
-0.109998
-0.110216
-0.111695
-0.114578
-0.118669
-0.123388
-0.12858
-0.134449
-0.141101
-0.148799
-0.157786
-0.168175
-0.179971
-0.193934
-0.210932
-0.231118
-0.255068
-0.283603
-0.319232
-0.356177
-0.38168
-0.40479
-0.425027
-0.404393
-0.381652
-0.356654
-0.319498
-0.285292
-0.257392
-0.232229
-0.211721
-0.19506
-0.181132
-0.169343
-0.158972
-0.149923
-0.142186
-0.135478
-0.129519
-0.124214
-0.119415
-0.11514
-0.112043
-0.110318
-0.109998
-0.11
-0.11
-0.11
-0.11
-0.11
-0.11
-0.11
-0.11
-0.11
-0.11
-0.11
-0.11
-0.11
-0.11
-0.11
-0.11
-0.11
-0.11
-0.0825
-0.0825
-0.0825
-0.0825
-0.0825
-0.0825
-0.0825
-0.0825
-0.0825
-0.0825
-0.0825
-0.0825
-0.0825
-0.0825
-0.0825
-0.0825
-0.0825
-0.0825
-0.0824985
-0.0827505
-0.0841162
-0.086563
-0.0898405
-0.0934397
-0.0973979
-0.101817
-0.106789
-0.112508
-0.119231
-0.127151
-0.136881
-0.148884
-0.163086
-0.180645
-0.202553
-0.228851
-0.260797
-0.302762
-0.339505
-0.374578
-0.40263
-0.374105
-0.339341
-0.302968
-0.260597
-0.229039
-0.203518
-0.181593
-0.163988
-0.14987
-0.137769
-0.128018
-0.120147
-0.11337
-0.107631
-0.102592
-0.0981139
-0.0940784
-0.0904317
-0.0870409
-0.0844137
-0.0828547
-0.0824989
-0.0825
-0.0825
-0.0825
-0.0825
-0.0825
-0.0825
-0.0825
-0.0825
-0.0825
-0.0825
-0.0825
-0.0825
-0.0825
-0.0825
-0.0825
-0.0825
-0.0825
-0.0825
-0.055
-0.055
-0.055
-0.055
-0.055
-0.055
-0.055
-0.055
-0.055
-0.055
-0.055
-0.055
-0.055
-0.055
-0.055
-0.055
-0.055
-0.055
-0.0549989
-0.0552528
-0.0564708
-0.058413
-0.0607729
-0.0632272
-0.0659411
-0.0689347
-0.0723171
-0.0761778
-0.0806456
-0.0859685
-0.0925156
-0.10089
-0.111606
-0.126007
-0.143823
-0.165807
-0.193873
-0.231674
-0.274981
-0.334412
-0.373893
-0.333862
-0.274613
-0.231969
-0.193929
-0.165955
-0.144243
-0.126479
-0.112124
-0.101549
-0.0930716
-0.086607
-0.0811736
-0.0767563
-0.0728273
-0.069434
-0.066392
-0.0636376
-0.0611564
-0.0587577
-0.0567161
-0.0553493
-0.0550001
-0.055
-0.055
-0.055
-0.055
-0.055
-0.055
-0.055
-0.055
-0.055
-0.055
-0.055
-0.055
-0.055
-0.055
-0.055
-0.055
-0.055
-0.055
-0.0275
-0.0275
-0.0275
-0.0275
-0.0275
-0.0275
-0.0275
-0.0275
-0.0275
-0.0275
-0.0275
-0.0275
-0.0275
-0.0275
-0.0275
-0.0275
-0.0275
-0.0275
-0.0275002
-0.0277108
-0.0285089
-0.029633
-0.0309098
-0.0321639
-0.0335682
-0.0351342
-0.0368937
-0.0389719
-0.0413142
-0.0442924
-0.0481456
-0.0525435
-0.0583707
-0.0669445
-0.078762
-0.0936516
-0.113882
-0.14272
-0.182058
-0.26271
-0.330214
-0.26193
-0.181581
-0.142662
-0.113974
-0.0936893
-0.0788621
-0.067046
-0.0586159
-0.0526674
-0.0484835
-0.0444963
-0.0416068
-0.0391751
-0.0371437
-0.0353456
-0.0337715
-0.0323461
-0.0310784
-0.0298112
-0.0286501
-0.0277832
-0.027502
-0.0275001
-0.0275
-0.0275
-0.0275
-0.0275
-0.0275
-0.0275
-0.0275
-0.0275
-0.0275
-0.0275
-0.0275
-0.0275
-0.0275
-0.0275
-0.0275
-0.0275
-0.0275
5.55112e-017
5.55073e-017
5.54996e-017
5.55245e-017
5.54978e-017
5.55244e-017
5.55111e-017
5.54959e-017
5.55283e-017
5.5494e-017
5.55264e-017
5.5513e-017
5.55093e-017
5.55125e-017
2.37962e-016
5.5166e-013
8.38203e-011
-7.3896e-010
-4.87432e-008
1.11011e-005
4.95908e-005
9.0054e-005
0.000121353
0.000118177
0.000113729
0.00011361
7.4426e-005
0.000117711
-3.97841e-006
0.000141438
-0.000188268
0.000107026
-0.000188143
0.000328582
-0.000734594
-0.00114831
-0.00189309
-0.00123797
-0.00102504
-0.000397151
-7.91785e-005
-0.000149322
-0.000945877
-0.00114092
-0.00185735
-0.00108789
-0.000579208
0.000354915
-7.68845e-005
6.15277e-005
-1.98481e-005
8.89456e-005
6.80177e-005
0.00012189
0.000118845
0.000134608
0.000138182
0.000134484
0.000128779
9.98883e-005
5.62489e-005
1.45466e-005
7.00626e-008
-9.22924e-010
1.65496e-010
1.2304e-012
-2.81626e-016
5.5498e-017
5.55284e-017
5.5494e-017
5.55111e-017
5.55264e-017
5.54977e-017
5.55245e-017
5.54959e-017
5.55131e-017
5.55264e-017
5.5492e-017
5.55302e-017
5.5492e-017
5.55112e-017
0.0275
0.0275
0.0275
0.0275
0.0275
0.0275
0.0275
0.0275
0.0275
0.0275
0.0275
0.0275
0.0275
0.0275
0.0275
0.0275
0.0275
0.0275
0.0274999
0.0277264
0.028586
0.0297868
0.0311263
0.0324004
0.0338015
0.0353197
0.0370837
0.0390361
0.0414586
0.0441775
0.0481336
0.052105
0.058269
0.0660895
0.0781685
0.0936896
0.113238
0.141732
0.181132
0.262868
0.33056
0.262451
0.181139
0.142063
0.113593
0.0940282
0.0786378
0.06642
0.0584846
0.0523765
0.048399
0.0444782
0.0417208
0.0393378
0.0373603
0.0355932
0.034046
0.0326183
0.0313274
0.0299896
0.0287429
0.027806
0.027502
0.0275
0.0275
0.0275
0.0275
0.0275
0.0275
0.0275
0.0275
0.0275
0.0275
0.0275
0.0275
0.0275
0.0275
0.0275
0.0275
0.0275
0.0275
0.055
0.055
0.055
0.055
0.055
0.055
0.055
0.055
0.055
0.055
0.055
0.055
0.055
0.055
0.055
0.055
0.055
0.055
0.0549988
0.0552586
0.0565101
0.0585138
0.0609336
0.0634113
0.0661021
0.0690652
0.0723562
0.0761932
0.0805139
0.0857991
0.0920856
0.100422
0.110408
0.124594
0.142369
0.164097
0.192547
0.230828
0.274329
0.334603
0.374365
0.334318
0.274411
0.231463
0.193059
0.164709
0.142999
0.125175
0.110974
0.100959
0.0926504
0.0863552
0.0811076
0.0767679
0.0729276
0.069604
0.0666062
0.063868
0.0613597
0.05889
0.0567727
0.0553595
0.0549999
0.055
0.055
0.055
0.055
0.055
0.055
0.055
0.055
0.055
0.055
0.055
0.055
0.055
0.055
0.055
0.055
0.055
0.055
0.0825
0.0825
0.0825
0.0825
0.0825
0.0825
0.0825
0.0825
0.0825
0.0825
0.0825
0.0825
0.0825
0.0825
0.0825
0.0825
0.0825
0.0825
0.0824984
0.0827507
0.0841413
0.0866296
0.0899503
0.0935602
0.0974801
0.101811
0.1067
0.112288
0.118921
0.126641
0.136061
0.147938
0.161896
0.179529
0.201703
0.227161
0.258794
0.301587
0.339148
0.375082
0.403145
0.374833
0.339301
0.302329
0.259526
0.228168
0.202626
0.180446
0.16281
0.148851
0.136944
0.12753
0.119778
0.113162
0.107551
0.102625
0.0982321
0.0942415
0.0905849
0.0871394
0.0844564
0.0828578
0.0824988
0.0825
0.0825
0.0825
0.0825
0.0825
0.0825
0.0825
0.0825
0.0825
0.0825
0.0825
0.0825
0.0825
0.0825
0.0825
0.0825
0.0825
0.0825
0.11
0.11
0.11
0.11
0.11
0.11
0.11
0.11
0.11
0.11
0.11
0.11
0.11
0.11
0.11
0.11
0.11
0.11
0.109998
0.110211
0.111699
0.114616
0.118728
0.123444
0.128568
0.134311
0.140804
0.148365
0.157256
0.167438
0.17906
0.192931
0.20959
0.229991
0.255528
0.282787
0.317202
0.355423
0.381612
0.405412
0.4256
0.405126
0.381737
0.356094
0.318241
0.283992
0.256771
0.231197
0.210763
0.19398
0.180176
0.16857
0.158334
0.149419
0.141885
0.135323
0.129505
0.124284
0.119492
0.115194
0.112056
0.110312
0.109998
0.11
0.11
0.11
0.11
0.11
0.11
0.11
0.11
0.11
0.11
0.11
0.11
0.11
0.11
0.11
0.11
0.11
0.11
0.1375
0.1375
0.1375
0.1375
0.1375
0.1375
0.1375
0.1375
0.1375
0.1375
0.1375
0.1375
0.1375
0.1375
0.1375
0.1375
0.1375
0.1375
0.137498
0.137643
0.139122
0.142482
0.147361
0.153222
0.159683
0.166906
0.175089
0.184305
0.194633
0.20619
0.219266
0.235012
0.253623
0.276539
0.304743
0.33148
0.363305
0.392369
0.412225
0.429557
0.445299
0.429386
0.412324
0.392784
0.36411
0.332567
0.306422
0.278129
0.255299
0.236628
0.220832
0.207463
0.195816
0.185465
0.17624
0.168015
0.160734
0.154177
0.148209
0.143104
0.139496
0.13773
0.137498
0.1375
0.1375
0.1375
0.1375
0.1375
0.1375
0.1375
0.1375
0.1375
0.1375
0.1375
0.1375
0.1375
0.1375
0.1375
0.1375
0.1375
0.1375
0.165
0.165
0.165
0.165
0.165
0.165