VARIABLES = X, Y, e
ZONE N = 121, E = 100
ZONETYPE = FEQUADRILATERAL
DATAPACKING = BLOCK
varlocation=([3]=cellcentered)
-1.1
-1.1
-1.1
-1.1
-1.1
-1.1
-1.1
-1.1
-1.1
-1.1
-1.1
-0.88
-0.658326
-0.657675
-0.65696
-0.656349
-0.6561
-0.656349
-0.65696
-0.657675
-0.658326
-0.88
-0.66
-0.493253
-0.492418
-0.491329
-0.490213
-0.489697
-0.490213
-0.491329
-0.492418
-0.493253
-0.66
-0.44
-0.32847
-0.327538
-0.325977
-0.323746
-0.32241
-0.323746
-0.325977
-0.327538
-0.32847
-0.44
-0.22
-0.164077
-0.163378
-0.161799
-0.157622
-0.153277
-0.157622
-0.161799
-0.163379
-0.164078
-0.22
0
1.16846e-08
6.41308e-08
3.40323e-08
1.0304e-08
-1.4256e-08
-4.05445e-08
-6.5648e-08
-9.55357e-08
-1.38131e-07
0
0.22
0.164077
0.163379
0.161799
0.157622
0.153277
0.157622
0.161799
0.163378
0.164077
0.22
0.44
0.32847
0.327538
0.325977
0.323746
0.32241
0.323746
0.325977
0.327538
0.32847
0.44
0.66
0.493253
0.492418
0.491329
0.490213
0.489697
0.490213
0.491329
0.492418
0.493253
0.66
0.88
0.658327
0.657676
0.656961
0.65635
0.656101
0.65635
0.656961
0.657677
0.658328
0.88
1.1
1.1
1.1
1.1
1.1
1.1
1.1
1.1
1.1
1.1
1.1
-1.1
-0.88
-0.66
-0.44
-0.22
0
0.22
0.44
0.66
0.88
1.1
-1.1
-0.658327
-0.493252
-0.32847
-0.164077
6.93373e-08
0.164078
0.32847
0.493253
0.658327
1.1
-1.1
-0.657676
-0.492418
-0.327538
-0.163378
6.27664e-08
0.163379
0.327538
0.492418
0.657676
1.1
-1.1
-0.65696
-0.491329
-0.325977
-0.161799
3.34532e-08
0.161799
0.325977
0.491329
0.656961
1.1
-1.1
-0.65635
-0.490213
-0.323746
-0.157622
1.0153e-08
0.157622
0.323746
0.490213
0.65635
1.1
-1.1
-0.656101
-0.489697
-0.32241
-0.153277
-1.42399e-08
0.153277
0.32241
0.489697
0.656101
1.1
-1.1
-0.65635
-0.490213
-0.323746
-0.157622
-4.06955e-08
0.157622
0.323746
0.490213
0.65635
1.1
-1.1
-0.65696
-0.491329
-0.325977
-0.161799
-6.62272e-08
0.161799
0.325977
0.491329
0.656961
1.1
-1.1
-0.657675
-0.492418
-0.327538
-0.163379
-9.69071e-08
0.163378
0.327538
0.492418
0.657676
1.1
-1.1
-0.658326
-0.493253
-0.32847
-0.164078
-8.86795e-08
0.164077
0.32847
0.493253
0.658327
1.1
-1.1
-0.88
-0.66
-0.44
-0.22
0
0.22
0.44
0.66
0.88
1.1
0.304725
0.11506
0.0847991
0.0711282
0.0631234
0.0577134
0.0646079
0.0790098
0.101683
0.28115
0.11483
0.0114367
0.00932345
0.00784259
0.00707837
0.00707591
0.00783243
0.00928698
0.0113569
0.116774
0.0833668
0.00937219
0.00709665
0.00546429
0.0046133
0.00461345
0.00546386
0.00709466
0.00938081
0.0829061
0.0715034
0.00786834
0.00546465
0.00362235
0.00264984
0.00265034
0.00362176
0.00546225
0.0078825
0.0716583
0.0631591
0.00709132
0.00461385
0.00265007
0.00136384
0.00136381
0.00264797
0.00461139
0.00710642
0.0632255
0.0577106
0.00707999
0.00461429
0.00265055
0.00136388
0.00136409
0.00264923
0.00461314
0.00709738
0.0577508
0.0646242
0.00783248
0.00546604
0.00362289
0.00264879
0.00265003
0.00362463
0.0054671
0.00785834
0.0647161
0.0790241
0.00928489
0.00709983
0.00546564
0.00461389
0.00461516
0.00546844
0.0071014
0.00932622
0.0792049
0.101694
0.0113517
0.00937686
0.00788449
0.00711742
0.00711843
0.00788684
0.00937652
0.0114217
0.102066
0.281127
0.116774
0.0829148
0.071631
0.0632301
0.0577563
0.0647165
0.0792026
0.101937
0.258734
	1	12	13	2
	2	13	14	3
	3	14	15	4
	4	15	16	5
	5	16	17	6
	6	17	18	7
	7	18	19	8
	8	19	20	9
	9	20	21	10
	10	21	22	11
	12	23	24	13
	13	24	25	14
	14	25	26	15
	15	26	27	16
	16	27	28	17
	17	28	29	18
	18	29	30	19
	19	30	31	20
	20	31	32	21
	21	32	33	22
	23	34	35	24
	24	35	36	25
	25	36	37	26
	26	37	38	27
	27	38	39	28
	28	39	40	29
	29	40	41	30
	30	41	42	31
	31	42	43	32
	32	43	44	33
	34	45	46	35
	35	46	47	36
	36	47	48	37
	37	48	49	38
	38	49	50	39
	39	50	51	40
	40	51	52	41
	41	52	53	42
	42	53	54	43
	43	54	55	44
	45	56	57	46
	46	57	58	47
	47	58	59	48
	48	59	60	49
	49	60	61	50
	50	61	62	51
	51	62	63	52
	52	63	64	53
	53	64	65	54
	54	65	66	55
	56	67	68	57
	57	68	69	58
	58	69	70	59
	59	70	71	60
	60	71	72	61
	61	72	73	62
	62	73	74	63
	63	74	75	64
	64	75	76	65
	65	76	77	66
	67	78	79	68
	68	79	80	69
	69	80	81	70
	70	81	82	71
	71	82	83	72
	72	83	84	73
	73	84	85	74
	74	85	86	75
	75	86	87	76
	76	87	88	77
	78	89	90	79
	79	90	91	80
	80	91	92	81
	81	92	93	82
	82	93	94	83
	83	94	95	84
	84	95	96	85
	85	96	97	86
	86	97	98	87
	87	98	99	88
	89	100	101	90
	90	101	102	91
	91	102	103	92
	92	103	104	93
	93	104	105	94
	94	105	106	95
	95	106	107	96
	96	107	108	97
	97	108	109	98
	98	109	110	99
	100	111	112	101
	101	112	113	102
	102	113	114	103
	103	114	115	104
	104	115	116	105
	105	116	117	106
	106	117	118	107
	107	118	119	108
	108	119	120	109
	109	120	121	110
