VARIABLES = X, Y
ZONE N = 1111, E = 1000, F = FEPOINT, ET = QUADRILATERAL
	0	0
	0	0.02
	0	0.04
	0	0.06
	0	0.08
	0	0.1
	0	0.12
	0	0.14
	0	0.16
	0	0.18
	0	0.2
	0.01	2.03107e-011
	0.01	0.02
	0.01	0.04
	0.01	0.06
	0.01	0.08
	0.01	0.1
	0.01	0.12
	0.01	0.14
	0.01	0.16
	0.01	0.18
	0.01	0.2
	0.02	4.31435e-011
	0.02	0.02
	0.02	0.04
	0.02	0.06
	0.02	0.08
	0.02	0.1
	0.02	0.12
	0.02	0.14
	0.02	0.16
	0.02	0.18
	0.02	0.2
	0.03	8.81315e-011
	0.03	0.02
	0.03	0.04
	0.03	0.06
	0.03	0.08
	0.03	0.1
	0.03	0.12
	0.03	0.14
	0.03	0.16
	0.03	0.18
	0.03	0.2
	0.04	1.92031e-010
	0.04	0.02
	0.04	0.04
	0.04	0.06
	0.04	0.08
	0.04	0.1
	0.04	0.12
	0.04	0.14
	0.04	0.16
	0.04	0.18
	0.04	0.2
	0.0500001	4.41515e-010
	0.0500001	0.02
	0.0500001	0.04
	0.0500001	0.06
	0.0500001	0.08
	0.0500001	0.1
	0.0500001	0.12
	0.0500001	0.14
	0.0500001	0.16
	0.0500001	0.18
	0.0500001	0.2
	0.0600002	8.06179e-010
	0.0600002	0.02
	0.0600002	0.04
	0.0600002	0.06
	0.0600002	0.08
	0.0600002	0.1
	0.0600002	0.12
	0.0600002	0.14
	0.0600002	0.16
	0.0600002	0.18
	0.0600002	0.2
	0.0700004	1.49703e-009
	0.0700004	0.02
	0.0700004	0.04
	0.0700004	0.06
	0.0700004	0.08
	0.0700004	0.1
	0.0700004	0.12
	0.0700004	0.14
	0.0700004	0.16
	0.0700004	0.18
	0.0700004	0.2
	0.0800007	2.92212e-009
	0.0800007	0.02
	0.0800008	0.04
	0.0800008	0.06
	0.0800008	0.08
	0.0800008	0.1
	0.0800008	0.12
	0.0800008	0.14
	0.0800008	0.16
	0.0800008	0.18
	0.0800008	0.2
	0.0900014	5.72484e-009
	0.0900014	0.02
	0.0900014	0.04
	0.0900014	0.06
	0.0900014	0.08
	0.0900014	0.1
	0.0900015	0.12
	0.0900015	0.14
	0.0900015	0.16
	0.0900015	0.18
	0.0900014	0.2
	0.100003	1.15905e-008
	0.100003	0.02
	0.100003	0.04
	0.100003	0.06
	0.100003	0.08
	0.100003	0.1
	0.100003	0.12
	0.100003	0.14
	0.100003	0.16
	0.100003	0.18
	0.100003	0.2
	0.110005	2.15414e-008
	0.110005	0.02
	0.110005	0.04
	0.110005	0.06
	0.110005	0.08
	0.110005	0.1
	0.110005	0.12
	0.110005	0.14
	0.110005	0.16
	0.110005	0.18
	0.110005	0.2
	0.120009	4.40028e-008
	0.120009	0.02
	0.120009	0.04
	0.120009	0.06
	0.120009	0.08
	0.120009	0.1
	0.120009	0.12
	0.120009	0.14
	0.120009	0.16
	0.120009	0.18
	0.120009	0.2
	0.130016	7.9405e-008
	0.130016	0.0200001
	0.130016	0.0400001
	0.130016	0.0600001
	0.130016	0.0800001
	0.130016	0.1
	0.130016	0.12
	0.130016	0.14
	0.130016	0.16
	0.130016	0.18
	0.130016	0.2
	0.140027	1.40978e-007
	0.140028	0.0200001
	0.140028	0.0400001
	0.140028	0.0600001
	0.140028	0.0800001
	0.140028	0.1
	0.140028	0.12
	0.140028	0.14
	0.140029	0.16
	0.140029	0.18
	0.140028	0.2
	0.150048	2.96778e-007
	0.150048	0.0200002
	0.150048	0.0400001
	0.150048	0.0600002
	0.150049	0.0800002
	0.150049	0.1
	0.150049	0.12
	0.150049	0.14
	0.15005	0.16
	0.15005	0.18
	0.150049	0.2
	0.160082	6.01499e-007
	0.160084	0.0200004
	0.160082	0.0400001
	0.160083	0.0600003
	0.160083	0.0800005
	0.160083	0.100001
	0.160084	0.120001
	0.160085	0.14
	0.160085	0.16
	0.160085	0.18
	0.160083	0.200001
	0.170138	1.0914e-006
	0.170142	0.0200006
	0.170139	0.0400002
	0.170139	0.0600006
	0.17014	0.0800008
	0.17014	0.100001
	0.170143	0.120001
	0.170143	0.140001
	0.170144	0.160001
	0.170144	0.18
	0.17014	0.200001
	0.180226	1.67383e-006
	0.180234	0.020001
	0.180227	0.0400005
	0.18023	0.0600015
	0.180233	0.0800011
	0.18023	0.100002
	0.180237	0.120002
	0.180234	0.140001
	0.180237	0.16
	0.180236	0.18
	0.18023	0.200002
	0.190361	2.4168e-006
	0.190377	0.0200021
	0.190363	0.0400012
	0.19037	0.0600024
	0.190377	0.0800012
	0.190367	0.100002
	0.190382	0.120002
	0.190373	0.140001
	0.19038	0.160001
	0.190372	0.18
	0.190367	0.200002
	0.200557	2.85769e-006
	0.200582	0.0200022
	0.200563	0.0400015
	0.200577	0.0600047
	0.20059	0.0800014
	0.200565	0.100003
	0.200598	0.120003
	0.200574	0.14
	0.200588	0.159999
	0.200571	0.179999
	0.200565	0.200003
	0.210839	3.10175e-006
	0.210879	0.0200038
	0.210846	0.0400042
	0.210871	0.0600077
	0.21089	0.0800015
	0.21085	0.100003
	0.210897	0.120002
	0.210862	0.139998
	0.210879	0.159998
	0.210849	0.179998
	0.21085	0.200003
	0.221228	1.67452e-006
	0.221269	0.0200045
	0.221243	0.0400078
	0.221274	0.0600112
	0.221305	0.0800024
	0.221243	0.100002
	0.221306	0.120001
	0.221259	0.139997
	0.221276	0.159995
	0.221232	0.179998
	0.221243	0.200002
	0.23176	7.37517e-007
	0.231783	0.0200104
	0.231776	0.0400152
	0.231811	0.0600144
	0.231852	0.080001
	0.231779	0.100001
	0.231838	0.120002
	0.231797	0.139995
	0.231801	0.159996
	0.231745	0.179996
	0.231779	0.200001
	0.242431	-8.58483e-007
	0.242448	0.020016
	0.242476	0.0400236
	0.24251	0.0600177
	0.242564	0.0800004
	0.242455	0.0999991
	0.24253	0.120001
	0.2425	0.139985
	0.242478	0.159982
	0.242452	0.179991
	0.242455	0.199999
	0.253302	-2.90499e-006
	0.253289	0.0200173
	0.253366	0.0400274
	0.253397	0.0600213
	0.253464	0.080004
	0.253332	0.099997
	0.25342	0.119994
	0.253398	0.139975
	0.253337	0.159969
	0.25328	0.179987
	0.253332	0.199997
	0.264398	-7.30267e-006
	0.264353	0.0200149
	0.264466	0.0400303
	0.264497	0.0600238
	0.26458	0.0800075
	0.264435	0.0999926
	0.264517	0.119986
	0.264514	0.139967
	0.264398	0.159973
	0.26437	0.179993
	0.264435	0.199993
	0.275745	-1.18183e-005
	0.275661	0.0200145
	0.275809	0.0400322
	0.27584	0.0600277
	0.275938	0.0800117
	0.275788	0.099988
	0.275848	0.119979
	0.275879	0.139952
	0.275684	0.159944
	0.275708	0.179986
	0.275788	0.199988
	0.287367	-1.10305e-005
	0.287255	0.0200173
	0.287402	0.0400394
	0.287454	0.0600311
	0.287567	0.0800148
	0.287417	0.0999888
	0.28744	0.119986
	0.287518	0.13997
	0.287246	0.159936
	0.287246	0.179971
	0.287417	0.199989
	0.299283	-4.88126e-006
	0.299134	0.0200516
	0.299307	0.0400562
	0.299372	0.0600307
	0.299496	0.0799993
	0.299341	0.099995
	0.299317	0.12002
	0.299445	0.140005
	0.29917	0.159967
	0.29914	0.179964
	0.299341	0.199995
	0.311439	1.22133e-005
	0.311365	0.0200861
	0.311544	0.0400765
	0.311628	0.0600297
	0.311761	0.0799872
	0.311506	0.100012
	0.311532	0.120051
	0.311702	0.14
	0.311394	0.159978
	0.311384	0.179963
	0.311506	0.200012
	0.323947	2.73534e-005
	0.3239	0.0200991
	0.324174	0.0400754
	0.324251	0.0600148
	0.324384	0.0799882
	0.324022	0.100027
	0.324182	0.120043
	0.32433	0.139991
	0.323954	0.159987
	0.324004	0.17999
	0.324022	0.200027
	0.336854	1.00334e-005
	0.336829	0.0200664
	0.337261	0.0400169
	0.337263	0.0599679
	0.337398	0.0799678
	0.336937	0.10001
	0.337231	0.120026
	0.33736	0.139976
	0.336916	0.159979
	0.337021	0.179976
	0.336937	0.20001
	0.350199	-1.06918e-005
	0.350324	0.0200311
	0.350844	0.0399339
	0.350696	0.0599217
	0.350841	0.0799446
	0.350291	0.0999891
	0.350721	0.119995
	0.350862	0.139923
	0.350319	0.159896
	0.350465	0.17994
	0.350291	0.199989
	0.364022	-1.30284e-005
	0.364418	0.0200078
	0.364873	0.0399125
	0.364604	0.0599163
	0.364754	0.0799441
	0.364124	0.0999867
	0.364694	0.119987
	0.364849	0.139887
	0.364211	0.15981
	0.364238	0.179854
	0.364124	0.199987
	0.378365	1.89038e-005
	0.379043	0.0200196
	0.379395	0.0399661
	0.379043	0.0599814
	0.379191	0.0799768
	0.378477	0.100019
	0.379182	0.120039
	0.379376	0.139955
	0.378649	0.159835
	0.378493	0.17991
	0.378477	0.200019
	0.393257	8.81918e-005
	0.394258	0.020045
	0.39432	0.0400063
	0.394124	0.0600102
	0.394183	0.0799862
	0.393379	0.100088
	0.394223	0.120122
	0.394474	0.140061
	0.393777	0.15992
	0.393294	0.179939
	0.393379	0.200088
	0.40878	0.000120201
	0.410096	0.0200665
	0.409875	0.0399951
	0.409997	0.0599177
	0.40957	0.0799072
	0.408912	0.10012
	0.40985	0.120187
	0.4102	0.140165
	0.40956	0.15999
	0.408708	0.179969
	0.408912	0.20012
	0.424898	-6.60103e-005
	0.426553	0.019992
	0.426125	0.0399935
	0.426339	0.0599611
	0.425728	0.0799755
	0.425041	0.099934
	0.425974	0.120173
	0.426597	0.140214
	0.42604	0.160076
	0.424868	0.179949
	0.425041	0.199934
	0.44196	-9.69459e-005
	0.443343	0.0199582
	0.443124	0.0401632
	0.443377	0.0601353
	0.442817	0.0800497
	0.442113	0.099903
	0.442757	0.119865
	0.443499	0.140141
	0.443222	0.160134
	0.441876	0.180017
	0.442113	0.199903
	0.45974	-4.63526e-005
	0.460798	0.0200477
	0.460824	0.0400639
	0.461012	0.0601518
	0.460596	0.0801459
	0.459904	0.0999539
	0.460351	0.120039
	0.461172	0.140015
	0.460723	0.160253
	0.459795	0.180263
	0.459904	0.199954
	0.478622	8.25856e-005
	0.479244	0.0199318
	0.479231	0.0399594
	0.479435	0.0600825
	0.479177	0.0802151
	0.478795	0.100083
	0.478664	0.119979
	0.479617	0.140313
	0.479241	0.160419
	0.478778	0.180336
	0.478795	0.200083
	0.497972	0.000292678
	0.498433	0.0201008
	0.498453	0.039963
	0.49831	0.060038
	0.498152	0.0802543
	0.498153	0.100293
	0.49791	0.120189
	0.49872	0.139966
	0.498239	0.160157
	0.498144	0.18026
	0.498153	0.200293
	0.518014	0.000178946
	0.518314	0.0202575
	0.518486	0.0401917
	0.518207	0.0601764
	0.518066	0.0801547
	0.518199	0.10018
	0.51812	0.120081
	0.51861	0.140047
	0.518188	0.1601
	0.518164	0.18017
	0.518199	0.20018
	0.538479	6.00577e-005
	0.538663	0.0200692
	0.53894	0.0400977
	0.538676	0.0600882
	0.538496	0.0800678
	0.538665	0.10006
	0.538676	0.120021
	0.538982	0.140047
	0.538693	0.160073
	0.538603	0.180056
	0.538665	0.20006
	0.559421	4.66573e-005
	0.559542	0.020055
	0.559807	0.0401133
	0.559704	0.0601176
	0.559519	0.0800489
	0.559604	0.100047
	0.559725	0.120032
	0.559901	0.139952
	0.559654	0.160014
	0.559567	0.180036
	0.559604	0.200047
	0.580728	9.03699e-007
	0.580795	0.0199668
	0.580979	0.0399979
	0.580968	0.0600599
	0.580861	0.080051
	0.580903	0.100001
	0.581036	0.119985
	0.581119	0.140042
	0.580931	0.160071
	0.58088	0.18004
	0.580903	0.200001
	0.602416	1.2188e-005
	0.602442	0.0199808
	0.602535	0.0399992
	0.602557	0.0600365
	0.602535	0.0800388
	0.602574	0.100012
	0.602647	0.120009
	0.602685	0.140044
	0.602587	0.160064
	0.602567	0.18004
	0.602574	0.200012
	0.624228	2.31416e-005
	0.624252	0.0199886
	0.624271	0.0400064
	0.624316	0.0600319
	0.624329	0.0800179
	0.624362	0.100023
	0.624412	0.120021
	0.624429	0.140054
	0.624384	0.160041
	0.624374	0.180014
	0.624362	0.200023
	0.646711	-0.000164939
	0.646782	0.0199582
	0.646691	0.0398729
	0.646722	0.0600963
	0.646856	0.0800828
	0.646803	0.0998333
	0.646835	0.120176
	0.646917	0.140042
	0.646827	0.16002
	0.646834	0.179882
	0.646803	0.199833
	0.671144	-0.000241523
	0.671066	0.0200034
	0.671057	0.039843
	0.671047	0.0600776
	0.671048	0.0800987
	0.671174	0.0997581
	0.671223	0.120394
	0.6711	0.140076
	0.671066	0.160025
	0.671084	0.179831
	0.671174	0.199758
	0.677037	2.92719e-006
	0.677029	0.0200669
	0.676985	0.0400749
	0.676933	0.0600466
	0.676986	0.0799626
	0.67709	0.100003
	0.677115	0.120043
	0.677044	0.140121
	0.676969	0.160048
	0.676995	0.179984
	0.67709	0.200003
	0.682672	-1.58287e-005
	0.682689	0.0200489
	0.682627	0.0400566
	0.682582	0.0600301
	0.682637	0.07998
	0.682748	0.0999842
	0.682747	0.12003
	0.682688	0.14006
	0.682613	0.160051
	0.682637	0.17999
	0.682748	0.199984
	0.688235	-8.90198e-006
	0.688285	0.0200582
	0.688217	0.0400529
	0.688178	0.0600219
	0.688229	0.07998
	0.688335	0.099991
	0.688327	0.120018
	0.688272	0.140048
	0.6882	0.160025
	0.688224	0.179994
	0.688335	0.199991
	0.693764	-1.13598e-005
	0.693852	0.0200723
	0.693781	0.0400649
	0.693752	0.0600191
	0.693797	0.0799875
	0.693887	0.0999885
	0.693878	0.120011
	0.693829	0.140033
	0.693767	0.16001
	0.693792	0.180002
	0.693887	0.199988
	0.699275	-1.52052e-005
	0.699399	0.0200603
	0.699331	0.0400577
	0.699308	0.0600227
	0.699343	0.0799876
	0.699421	0.0999847
	0.69941	0.12001
	0.699372	0.140016
	0.699318	0.160015
	0.699337	0.179991
	0.699421	0.199985
	0.704778	-1.52108e-005
	0.70493	0.0200365
	0.70487	0.0400434
	0.704853	0.0600166
	0.704878	0.0799886
	0.704946	0.0999848
	0.704933	0.120006
	0.704898	0.140002
	0.704852	0.160011
	0.704868	0.179973
	0.704946	0.199985
	0.71028	-1.0121e-005
	0.710454	0.0200294
	0.710402	0.0400348
	0.710388	0.0600103
	0.710405	0.0799898
	0.710462	0.0999898
	0.710448	0.120001
	0.710421	0.139999
	0.710383	0.160003
	0.710394	0.179979
	0.710462	0.19999
	0.715786	4.37966e-006
	0.715976	0.0200402
	0.715927	0.0400351
	0.715917	0.0600172
	0.715928	0.0799989
	0.715976	0.100004
	0.715961	0.120016
	0.715935	0.140017
	0.715903	0.16001
	0.715912	0.179996
	0.715976	0.200004
	0.721295	7.18787e-006
	0.721497	0.0200295
	0.721446	0.0400222
	0.72144	0.0600114
	0.721445	0.0799964
	0.721487	0.100007
	0.721471	0.120022
	0.721447	0.140024
	0.721419	0.160009
	0.721428	0.180001
	0.721487	0.200007
	0.726803	1.05984e-005
	0.727012	0.0200185
	0.726961	0.0400147
	0.726955	0.060004
	0.726959	0.080002
	0.726996	0.100011
	0.72698	0.120029
	0.726956	0.140032
	0.726932	0.160009
	0.72694	0.180012
	0.726996	0.200011
	0.732304	9.30413e-006
	0.732524	0.0200146
	0.732469	0.0400113
	0.732466	0.0599992
	0.732466	0.0800022
	0.732499	0.100009
	0.732485	0.120031
	0.732463	0.140029
	0.732444	0.160009
	0.732448	0.180008
	0.732499	0.200009
	0.737803	3.92738e-006
	0.738031	0.0200049
	0.737973	0.040002
	0.73797	0.0599968
	0.737969	0.0799881
	0.737999	0.100004
	0.737986	0.120023
	0.737966	0.140022
	0.73795	0.160008
	0.737952	0.18
	0.737999	0.200004
	0.7433	-4.36403e-006
	0.743535	0.0199979
	0.743474	0.0399948
	0.743472	0.0599936
	0.74347	0.0799796
	0.743496	0.0999958
	0.743484	0.12001
	0.743468	0.140013
	0.743455	0.160005
	0.743454	0.179993
	0.743496	0.199996
	0.748792	-9.74371e-006
	0.749034	0.0199975
	0.74897	0.039999
	0.748968	0.0599947
	0.748965	0.0799865
	0.748989	0.0999902
	0.748978	0.120003
	0.748965	0.140008
	0.748955	0.160001
	0.748953	0.17999
	0.748989	0.19999
	0.754281	-1.27803e-005
	0.754529	0.0199961
	0.754463	0.0400006
	0.754462	0.0599949
	0.754457	0.079988
	0.754478	0.0999873
	0.75447	0.119992
	0.75446	0.14
	0.754452	0.159997
	0.754448	0.179994
	0.754478	0.199987
	0.759766	-1.19384e-005
	0.76002	0.0199977
	0.759952	0.0400037
	0.759952	0.0599981
	0.759946	0.0799899
	0.759964	0.0999881
	0.759957	0.11999
	0.759951	0.139992
	0.759943	0.16
	0.759938	0.179989
	0.759964	0.199988
	0.765249	-9.68993e-006
	0.765507	0.0199995
	0.765438	0.0400064
	0.765438	0.0600003
	0.765433	0.0799929
	0.765447	0.0999904
	0.76544	0.119992
	0.765437	0.139988
	0.76543	0.159995
	0.765426	0.179983
	0.765447	0.19999
	0.770729	-6.15805e-006
	0.77099	0.0200019
	0.770919	0.0400108
	0.770921	0.0600075
	0.770917	0.0799995
	0.770928	0.0999939
	0.770921	0.119993
	0.770918	0.139988
	0.770913	0.159993
	0.77091	0.179989
	0.770928	0.199994
	0.776207	-1.64811e-007
	0.776471	0.0200081
	0.776397	0.0400152
	0.776401	0.0600168
	0.776398	0.080009
	0.776406	0.0999999
	0.776399	0.119997
	0.776397	0.139991
	0.776393	0.159996
	0.77639	0.179993
	0.776406	0.2
	0.781681	1.08178e-005
	0.781947	0.0200146
	0.781873	0.0400175
	0.781878	0.0600192
	0.781876	0.0800165
	0.781881	0.100011
	0.781873	0.120005
	0.781872	0.139998
	0.781865	0.159998
	0.781863	0.180007
	0.781881	0.200011
	0.787153	2.1956e-005
	0.787422	0.0200233
	0.787344	0.040023
	0.787351	0.0600173
	0.787349	0.0800227
	0.787354	0.100022
	0.787346	0.120014
	0.787344	0.140006
	0.787335	0.160004
	0.787333	0.180014
	0.787354	0.200022
	0.792621	2.74749e-005
	0.792895	0.020028
	0.792813	0.0400261
	0.792821	0.0600157
	0.792817	0.0800263
	0.792822	0.100027
	0.792816	0.12002
	0.792812	0.140013
	0.7928	0.160011
	0.7928	0.180016
	0.792822	0.200027
	0.798086	2.4839e-005
	0.798365	0.0200241
	0.798279	0.0400219
	0.798287	0.0600107
	0.798282	0.0800189
	0.798288	0.100025
	0.798283	0.120017
	0.798278	0.140019
	0.798263	0.160019
	0.798261	0.180017
	0.798288	0.200025
	0.803547	1.76115e-005
	0.803831	0.0200207
	0.803742	0.0400201
	0.803749	0.0600094
	0.803743	0.0800074
	0.803749	0.100018
	0.803745	0.120015
	0.80374	0.140021
	0.803725	0.16002
	0.803723	0.180013
	0.803749	0.200018
	0.809006	9.97102e-006
	0.809293	0.020016
	0.809202	0.040017
	0.809207	0.060009
	0.8092	0.0800028
	0.809208	0.10001
	0.809202	0.120013
	0.809198	0.140022
	0.809185	0.160016
	0.809181	0.180009
	0.809208	0.20001
	0.814459	2.85145e-006
	0.814752	0.0200123
	0.814659	0.0400142
	0.814663	0.0600057
	0.814654	0.080001
	0.814662	0.100003
	0.814656	0.120008
	0.814653	0.140018
	0.814642	0.160008
	0.814638	0.180003
	0.814662	0.200003
	0.81991	-1.67073e-006
	0.820207	0.0200099
	0.820114	0.0400142
	0.820117	0.0600057
	0.820106	0.0799999
	0.820113	0.0999984
	0.820107	0.120003
	0.820106	0.140011
	0.820096	0.160004
	0.820092	0.180001
	0.820113	0.199998
	0.825358	-5.01127e-006
	0.825659	0.0200022
	0.825566	0.0400085
	0.825568	0.0600032
	0.825557	0.0799971
	0.825561	0.099995
	0.825555	0.119997
	0.825556	0.140005
	0.825547	0.160002
	0.825545	0.179998
	0.825561	0.199995
	0.830806	-6.32593e-006
	0.831109	0.0199967
	0.831014	0.0400053
	0.831016	0.0600026
	0.831005	0.0799973
	0.831009	0.0999937
	0.831003	0.119989
	0.831005	0.139991
	0.830996	0.159994
	0.830995	0.17999
	0.831009	0.199994
	0.836252	-7.97256e-006
	0.836556	0.0199907
	0.836459	0.0400018
	0.836462	0.0600012
	0.83645	0.0799967
	0.836456	0.0999921
	0.836449	0.119986
	0.83645	0.139984
	0.836441	0.159991
	0.836442	0.17999
	0.836456	0.199992
	0.841695	-4.93655e-006
	0.842001	0.0199905
	0.8419	0.040004
	0.841904	0.060003
	0.841894	0.079997
	0.841899	0.0999951
	0.841893	0.119989
	0.841893	0.139984
	0.841882	0.159982
	0.841885	0.179984
	0.841899	0.199995
	0.847138	9.13469e-007
	0.847446	0.0199865
	0.847341	0.0400025
	0.847348	0.0600005
	0.847337	0.0800021
	0.847342	0.100001
	0.847336	0.119994
	0.847335	0.139988
	0.847323	0.159988
	0.847328	0.179988
	0.847342	0.200001
	0.852581	2.30618e-006
	0.852889	0.0199813
	0.85278	0.040001
	0.852787	0.0599953
	0.852778	0.0799913
	0.852783	0.100002
	0.852775	0.120003
	0.852777	0.139997
	0.852762	0.159992
	0.852765	0.179987
	0.852783	0.200002
	0.858043	-3.85313e-006
	0.858354	0.0199764
	0.858246	0.040006
	0.858253	0.0599949
	0.858243	0.0799822
	0.858246	0.099996
	0.858241	0.120002
	0.858248	0.140004
	0.858229	0.159998
	0.85823	0.179987
	0.858246	0.199996
	0.863569	-1.12654e-005
	0.86387	0.0199586
	0.863769	0.0400003
	0.863774	0.0599926
	0.863763	0.0799869
	0.863767	0.0999888
	0.863767	0.119999
	0.863777	0.140007
	0.863755	0.159997
	0.863752	0.179979
	0.863767	0.199989
	0.86922	-1.71266e-005
	0.86949	0.0199548
	0.869407	0.0399978
	0.86941	0.0599895
	0.8694	0.0799907
	0.869408	0.099983
	0.869408	0.119983
	0.86942	0.140008
	0.869399	0.160003
	0.869393	0.17998
	0.869408	0.199983
	0.875335	-1.65874e-005
	0.87555	0.0199639
	0.875502	0.0399933
	0.875496	0.0599985
	0.875487	0.0799808
	0.875499	0.0999834
	0.875498	0.119982
	0.87551	0.140004
	0.8755	0.160005
	0.875493	0.179998
	0.875499	0.199983
	0.882372	-9.59891e-006
	0.882452	0.0199812
	0.882472	0.0399902
	0.882465	0.0599914
	0.882462	0.0799924
	0.882466	0.0999902
	0.882479	0.119987
	0.88247	0.139997
	0.882478	0.160012
	0.882482	0.180005
	0.882466	0.19999
	0.890923	-4.83644e-006
	0.890946	0.0199925
	0.890959	0.0399945
	0.890962	0.0599958
	0.890962	0.079996
	0.890965	0.099995
	0.890975	0.119992
	0.890981	0.139994
	0.89098	0.160006
	0.890978	0.179999
	0.890965	0.199995
	0.900333	-1.8735e-006
	0.900339	0.0199976
	0.900344	0.0399979
	0.900346	0.0599983
	0.900348	0.0799983
	0.900349	0.099998
	0.900352	0.119998
	0.900355	0.139998
	0.900357	0.159999
	0.900354	0.179999
	0.900349	0.199998
	0.910116	-6.24676e-007
	0.910118	0.0199992
	0.910119	0.0399993
	0.91012	0.0599993
	0.910121	0.0799994
	0.910122	0.0999993
	0.910123	0.119999
	0.910124	0.139999
	0.910124	0.159999
	0.910124	0.179999
	0.910122	0.199999
	0.92004	-2.09529e-007
	0.92004	0.0199997
	0.920041	0.0399997
	0.920041	0.0599998
	0.920042	0.0799998
	0.920042	0.0999998
	0.920042	0.12
	0.920042	0.14
	0.920042	0.16
	0.920043	0.18
	0.920042	0.2
	0.930014	-6.94989e-008
	0.930014	0.0199999
	0.930014	0.0399999
	0.930014	0.0599999
	0.930014	0.0799999
	0.930014	0.0999999
	0.930014	0.12
	0.930014	0.14
	0.930014	0.16
	0.930015	0.18
	0.930014	0.2
	0.940005	-2.34502e-008
	0.940005	0.02
	0.940005	0.04
	0.940005	0.06
	0.940005	0.08
	0.940005	0.1
	0.940005	0.12
	0.940005	0.14
	0.940005	0.16
	0.940005	0.18
	0.940005	0.2
	0.950002	-1.11718e-008
	0.950002	0.02
	0.950002	0.04
	0.950002	0.06
	0.950002	0.08
	0.950002	0.1
	0.950002	0.12
	0.950002	0.14
	0.950002	0.16
	0.950002	0.18
	0.950002	0.2
	0.960001	-6.46971e-009
	0.960001	0.02
	0.960001	0.04
	0.960001	0.06
	0.960001	0.08
	0.960001	0.1
	0.960001	0.12
	0.960001	0.14
	0.960001	0.16
	0.960001	0.18
	0.960001	0.2
	0.97	-1.26047e-009
	0.97	0.02
	0.97	0.04
	0.97	0.06
	0.97	0.08
	0.97	0.1
	0.97	0.12
	0.97	0.14
	0.97	0.16
	0.97	0.18
	0.97	0.2
	0.98	-4.30961e-010
	0.98	0.02
	0.98	0.04
	0.98	0.06
	0.98	0.08
	0.98	0.1
	0.98	0.12
	0.98	0.14
	0.98	0.16
	0.98	0.18
	0.98	0.2
	0.99	-9.23721e-011
	0.99	0.02
	0.99	0.04
	0.99	0.06
	0.99	0.08
	0.99	0.1
	0.99	0.12
	0.99	0.14
	0.99	0.16
	0.99	0.18
	0.99	0.2
	1	0
	1	0.02
	1	0.04
	1	0.06
	1	0.08
	1	0.1
	1	0.12
	1	0.14
	1	0.16
	1	0.18
	1	0.2
	1	12	13	2
	2	13	14	3
	3	14	15	4
	4	15	16	5
	5	16	17	6
	6	17	18	7
	7	18	19	8
	8	19	20	9
	9	20	21	10
	10	21	22	11
	12	23	24	13
	13	24	25	14
	14	25	26	15
	15	26	27	16
	16	27	28	17
	17	28	29	18
	18	29	30	19
	19	30	31	20
	20	31	32	21
	21	32	33	22
	23	34	35	24
	24	35	36	25
	25	36	37	26
	26	37	38	27
	27	38	39	28
	28	39	40	29
	29	40	41	30
	30	41	42	31
	31	42	43	32
	32	43	44	33
	34	45	46	35
	35	46	47	36
	36	47	48	37
	37	48	49	38
	38	49	50	39
	39	50	51	40
	40	51	52	41
	41	52	53	42
	42	53	54	43
	43	54	55	44
	45	56	57	46
	46	57	58	47
	47	58	59	48
	48	59	60	49
	49	60	61	50
	50	61	62	51
	51	62	63	52
	52	63	64	53
	53	64	65	54
	54	65	66	55
	56	67	68	57
	57	68	69	58
	58	69	70	59
	59	70	71	60
	60	71	72	61
	61	72	73	62
	62	73	74	63
	63	74	75	64
	64	75	76	65
	65	76	77	66
	67	78	79	68
	68	79	80	69
	69	80	81	70
	70	81	82	71
	71	82	83	72
	72	83	84	73
	73	84	85	74
	74	85	86	75
	75	86	87	76
	76	87	88	77
	78	89	90	79
	79	90	91	80
	80	91	92	81
	81	92	93	82
	82	93	94	83
	83	94	95	84
	84	95	96	85
	85	96	97	86
	86	97	98	87
	87	98	99	88
	89	100	101	90
	90	101	102	91
	91	102	103	92
	92	103	104	93
	93	104	105	94
	94	105	106	95
	95	106	107	96
	96	107	108	97
	97	108	109	98
	98	109	110	99
	100	111	112	101
	101	112	113	102
	102	113	114	103
	103	114	115	104
	104	115	116	105
	105	116	117	106
	106	117	118	107
	107	118	119	108
	108	119	120	109
	109	120	121	110
	111	122	123	112
	112	123	124	113
	113	124	125	114
	114	125	126	115
	115	126	127	116
	116	127	128	117
	117	128	129	118
	118	129	130	119
	119	130	131	120
	120	131	132	121
	122	133	134	123
	123	134	135	124
	124	135	136	125
	125	136	137	126
	126	137	138	127
	127	138	139	128
	128	139	140	129
	129	140	141	130
	130	141	142	131
	131	142	143	132
	133	144	145	134
	134	145	146	135
	135	146	147	136
	136	147	148	137
	137	148	149	138
	138	149	150	139
	139	150	151	140
	140	151	152	141
	141	152	153	142
	142	153	154	143
	144	155	156	145
	145	156	157	146
	146	157	158	147
	147	158	159	148
	148	159	160	149
	149	160	161	150
	150	161	162	151
	151	162	163	152
	152	163	164	153
	153	164	165	154
	155	166	167	156
	156	167	168	157
	157	168	169	158
	158	169	170	159
	159	170	171	160
	160	171	172	161
	161	172	173	162
	162	173	174	163
	163	174	175	164
	164	175	176	165
	166	177	178	167
	167	178	179	168
	168	179	180	169
	169	180	181	170
	170	181	182	171
	171	182	183	172
	172	183	184	173
	173	184	185	174
	174	185	186	175
	175	186	187	176
	177	188	189	178
	178	189	190	179
	179	190	191	180
	180	191	192	181
	181	192	193	182
	182	193	194	183
	183	194	195	184
	184	195	196	185
	185	196	197	186
	186	197	198	187
	188	199	200	189
	189	200	201	190
	190	201	202	191
	191	202	203	192
	192	203	204	193
	193	204	205	194
	194	205	206	195
	195	206	207	196
	196	207	208	197
	197	208	209	198
	199	210	211	200
	200	211	212	201
	201	212	213	202
	202	213	214	203
	203	214	215	204
	204	215	216	205
	205	216	217	206
	206	217	218	207
	207	218	219	208
	208	219	220	209
	210	221	222	211
	211	222	223	212
	212	223	224	213
	213	224	225	214
	214	225	226	215
	215	226	227	216
	216	227	228	217
	217	228	229	218
	218	229	230	219
	219	230	231	220
	221	232	233	222
	222	233	234	223
	223	234	235	224
	224	235	236	225
	225	236	237	226
	226	237	238	227
	227	238	239	228
	228	239	240	229
	229	240	241	230
	230	241	242	231
	232	243	244	233
	233	244	245	234
	234	245	246	235
	235	246	247	236
	236	247	248	237
	237	248	249	238
	238	249	250	239
	239	250	251	240
	240	251	252	241
	241	252	253	242
	243	254	255	244
	244	255	256	245
	245	256	257	246
	246	257	258	247
	247	258	259	248
	248	259	260	249
	249	260	261	250
	250	261	262	251
	251	262	263	252
	252	263	264	253
	254	265	266	255
	255	266	267	256
	256	267	268	257
	257	268	269	258
	258	269	270	259
	259	270	271	260
	260	271	272	261
	261	272	273	262
	262	273	274	263
	263	274	275	264
	265	276	277	266
	266	277	278	267
	267	278	279	268
	268	279	280	269
	269	280	281	270
	270	281	282	271
	271	282	283	272
	272	283	284	273
	273	284	285	274
	274	285	286	275
	276	287	288	277
	277	288	289	278
	278	289	290	279
	279	290	291	280
	280	291	292	281
	281	292	293	282
	282	293	294	283
	283	294	295	284
	284	295	296	285
	285	296	297	286
	287	298	299	288
	288	299	300	289
	289	300	301	290
	290	301	302	291
	291	302	303	292
	292	303	304	293
	293	304	305	294
	294	305	306	295
	295	306	307	296
	296	307	308	297
	298	309	310	299
	299	310	311	300
	300	311	312	301
	301	312	313	302
	302	313	314	303
	303	314	315	304
	304	315	316	305
	305	316	317	306
	306	317	318	307
	307	318	319	308
	309	320	321	310
	310	321	322	311
	311	322	323	312
	312	323	324	313
	313	324	325	314
	314	325	326	315
	315	326	327	316
	316	327	328	317
	317	328	329	318
	318	329	330	319
	320	331	332	321
	321	332	333	322
	322	333	334	323
	323	334	335	324
	324	335	336	325
	325	336	337	326
	326	337	338	327
	327	338	339	328
	328	339	340	329
	329	340	341	330
	331	342	343	332
	332	343	344	333
	333	344	345	334
	334	345	346	335
	335	346	347	336
	336	347	348	337
	337	348	349	338
	338	349	350	339
	339	350	351	340
	340	351	352	341
	342	353	354	343
	343	354	355	344
	344	355	356	345
	345	356	357	346
	346	357	358	347
	347	358	359	348
	348	359	360	349
	349	360	361	350
	350	361	362	351
	351	362	363	352
	353	364	365	354
	354	365	366	355
	355	366	367	356
	356	367	368	357
	357	368	369	358
	358	369	370	359
	359	370	371	360
	360	371	372	361
	361	372	373	362
	362	373	374	363
	364	375	376	365
	365	376	377	366
	366	377	378	367
	367	378	379	368
	368	379	380	369
	369	380	381	370
	370	381	382	371
	371	382	383	372
	372	383	384	373
	373	384	385	374
	375	386	387	376
	376	387	388	377
	377	388	389	378
	378	389	390	379
	379	390	391	380
	380	391	392	381
	381	392	393	382
	382	393	394	383
	383	394	395	384
	384	395	396	385
	386	397	398	387
	387	398	399	388
	388	399	400	389
	389	400	401	390
	390	401	402	391
	391	402	403	392
	392	403	404	393
	393	404	405	394
	394	405	406	395
	395	406	407	396
	397	408	409	398
	398	409	410	399
	399	410	411	400
	400	411	412	401
	401	412	413	402
	402	413	414	403
	403	414	415	404
	404	415	416	405
	405	416	417	406
	406	417	418	407
	408	419	420	409
	409	420	421	410
	410	421	422	411
	411	422	423	412
	412	423	424	413
	413	424	425	414
	414	425	426	415
	415	426	427	416
	416	427	428	417
	417	428	429	418
	419	430	431	420
	420	431	432	421
	421	432	433	422
	422	433	434	423
	423	434	435	424
	424	435	436	425
	425	436	437	426
	426	437	438	427
	427	438	439	428
	428	439	440	429
	430	441	442	431
	431	442	443	432
	432	443	444	433
	433	444	445	434
	434	445	446	435
	435	446	447	436
	436	447	448	437
	437	448	449	438
	438	449	450	439
	439	450	451	440
	441	452	453	442
	442	453	454	443
	443	454	455	444
	444	455	456	445
	445	456	457	446
	446	457	458	447
	447	458	459	448
	448	459	460	449
	449	460	461	450
	450	461	462	451
	452	463	464	453
	453	464	465	454
	454	465	466	455
	455	466	467	456
	456	467	468	457
	457	468	469	458
	458	469	470	459
	459	470	471	460
	460	471	472	461
	461	472	473	462
	463	474	475	464
	464	475	476	465
	465	476	477	466
	466	477	478	467
	467	478	479	468
	468	479	480	469
	469	480	481	470
	470	481	482	471
	471	482	483	472
	472	483	484	473
	474	485	486	475
	475	486	487	476
	476	487	488	477
	477	488	489	478
	478	489	490	479
	479	490	491	480
	480	491	492	481
	481	492	493	482
	482	493	494	483
	483	494	495	484
	485	496	497	486
	486	497	498	487
	487	498	499	488
	488	499	500	489
	489	500	501	490
	490	501	502	491
	491	502	503	492
	492	503	504	493
	493	504	505	494
	494	505	506	495
	496	507	508	497
	497	508	509	498
	498	509	510	499
	499	510	511	500
	500	511	512	501
	501	512	513	502
	502	513	514	503
	503	514	515	504
	504	515	516	505
	505	516	517	506
	507	518	519	508
	508	519	520	509
	509	520	521	510
	510	521	522	511
	511	522	523	512
	512	523	524	513
	513	524	525	514
	514	525	526	515
	515	526	527	516
	516	527	528	517
	518	529	530	519
	519	530	531	520
	520	531	532	521
	521	532	533	522
	522	533	534	523
	523	534	535	524
	524	535	536	525
	525	536	537	526
	526	537	538	527
	527	538	539	528
	529	540	541	530
	530	541	542	531
	531	542	543	532
	532	543	544	533
	533	544	545	534
	534	545	546	535
	535	546	547	536
	536	547	548	537
	537	548	549	538
	538	549	550	539
	540	551	552	541
	541	552	553	542
	542	553	554	543
	543	554	555	544
	544	555	556	545
	545	556	557	546
	546	557	558	547
	547	558	559	548
	548	559	560	549
	549	560	561	550
	551	562	563	552
	552	563	564	553
	553	564	565	554
	554	565	566	555
	555	566	567	556
	556	567	568	557
	557	568	569	558
	558	569	570	559
	559	570	571	560
	560	571	572	561
	562	573	574	563
	563	574	575	564
	564	575	576	565
	565	576	577	566
	566	577	578	567
	567	578	579	568
	568	579	580	569
	569	580	581	570
	570	581	582	571
	571	582	583	572
	573	584	585	574
	574	585	586	575
	575	586	587	576
	576	587	588	577
	577	588	589	578
	578	589	590	579
	579	590	591	580
	580	591	592	581
	581	592	593	582
	582	593	594	583
	584	595	596	585
	585	596	597	586
	586	597	598	587
	587	598	599	588
	588	599	600	589
	589	600	601	590
	590	601	602	591
	591	602	603	592
	592	603	604	593
	593	604	605	594
	595	606	607	596
	596	607	608	597
	597	608	609	598
	598	609	610	599
	599	610	611	600
	600	611	612	601
	601	612	613	602
	602	613	614	603
	603	614	615	604
	604	615	616	605
	606	617	618	607
	607	618	619	608
	608	619	620	609
	609	620	621	610
	610	621	622	611
	611	622	623	612
	612	623	624	613
	613	624	625	614
	614	625	626	615
	615	626	627	616
	617	628	629	618
	618	629	630	619
	619	630	631	620
	620	631	632	621
	621	632	633	622
	622	633	634	623
	623	634	635	624
	624	635	636	625
	625	636	637	626
	626	637	638	627
	628	639	640	629
	629	640	641	630
	630	641	642	631
	631	642	643	632
	632	643	644	633
	633	644	645	634
	634	645	646	635
	635	646	647	636
	636	647	648	637
	637	648	649	638
	639	650	651	640
	640	651	652	641
	641	652	653	642
	642	653	654	643
	643	654	655	644
	644	655	656	645
	645	656	657	646
	646	657	658	647