VARIABLES = X, Y
ZONE N = 909, E = 800, F = FEPOINT, ET = QUADRILATERAL
	0	0
	0	0.025
	0	0.05
	0	0.075
	0	0.1
	0	0.125
	0	0.15
	0	0.175
	0	0.2
	0.01	0
	0.01	0.025
	0.01	0.05
	0.01	0.075
	0.01	0.1
	0.01	0.125
	0.01	0.15
	0.01	0.175
	0.01	0.2
	0.02	0
	0.02	0.025
	0.02	0.05
	0.02	0.075
	0.02	0.1
	0.02	0.125
	0.02	0.15
	0.02	0.175
	0.02	0.2
	0.03	0
	0.03	0.025
	0.03	0.05
	0.03	0.075
	0.03	0.1
	0.03	0.125
	0.03	0.15
	0.03	0.175
	0.03	0.2
	0.04	0
	0.04	0.025
	0.04	0.05
	0.04	0.075
	0.04	0.1
	0.04	0.125
	0.04	0.15
	0.04	0.175
	0.04	0.2
	0.05	0
	0.05	0.025
	0.05	0.05
	0.05	0.075
	0.05	0.1
	0.05	0.125
	0.05	0.15
	0.05	0.175
	0.05	0.2
	0.06	0
	0.06	0.025
	0.06	0.05
	0.06	0.075
	0.06	0.1
	0.06	0.125
	0.06	0.15
	0.06	0.175
	0.06	0.2
	0.07	0
	0.07	0.025
	0.07	0.05
	0.07	0.075
	0.07	0.1
	0.07	0.125
	0.07	0.15
	0.07	0.175
	0.07	0.2
	0.08	0
	0.08	0.025
	0.08	0.05
	0.08	0.075
	0.08	0.1
	0.08	0.125
	0.08	0.15
	0.08	0.175
	0.08	0.2
	0.09	0
	0.09	0.025
	0.09	0.05
	0.09	0.075
	0.09	0.1
	0.09	0.125
	0.09	0.15
	0.09	0.175
	0.09	0.2
	0.1	0
	0.1	0.025
	0.1	0.05
	0.1	0.075
	0.1	0.1
	0.1	0.125
	0.1	0.15
	0.1	0.175
	0.1	0.2
	0.11	0
	0.11	0.025
	0.11	0.05
	0.11	0.075
	0.11	0.1
	0.11	0.125
	0.11	0.15
	0.11	0.175
	0.11	0.2
	0.12	0
	0.12	0.025
	0.12	0.05
	0.12	0.075
	0.12	0.1
	0.12	0.125
	0.12	0.15
	0.12	0.175
	0.12	0.2
	0.130001	0
	0.130001	0.025
	0.130001	0.05
	0.130001	0.075
	0.130001	0.1
	0.130001	0.125
	0.130001	0.15
	0.130001	0.175
	0.130001	0.2
	0.140001	0
	0.140001	0.025
	0.140001	0.05
	0.140001	0.075
	0.140001	0.1
	0.140001	0.125
	0.140001	0.15
	0.140001	0.175
	0.140001	0.2
	0.150003	0
	0.150003	0.025
	0.150003	0.05
	0.150003	0.075
	0.150003	0.1
	0.150003	0.125
	0.150003	0.15
	0.150003	0.175
	0.150003	0.2
	0.160006	0
	0.160006	0.025
	0.160006	0.05
	0.160006	0.075
	0.160006	0.1
	0.160006	0.125
	0.160006	0.15
	0.160006	0.175
	0.160006	0.2
	0.170012	0
	0.170012	0.025
	0.170012	0.05
	0.170012	0.075
	0.170012	0.1
	0.170012	0.125
	0.170012	0.15
	0.170012	0.175
	0.170012	0.2
	0.180024	0
	0.180024	0.025
	0.180024	0.05
	0.180024	0.075
	0.180024	0.1
	0.180024	0.125
	0.180024	0.15
	0.180024	0.175
	0.180024	0.2
	0.190047	0
	0.190046	0.0249999
	0.190046	0.05
	0.190045	0.075
	0.190046	0.1
	0.190046	0.125
	0.190045	0.15
	0.190046	0.175
	0.190046	0.2
	0.200086	0
	0.200084	0.0249998
	0.200084	0.0499999
	0.200083	0.075
	0.200084	0.1
	0.200083	0.125
	0.200083	0.15
	0.200084	0.175
	0.200085	0.2
	0.210153	0
	0.21015	0.0249995
	0.210149	0.0499996
	0.210148	0.0749998
	0.210148	0.0999999
	0.210148	0.125
	0.210148	0.15
	0.210149	0.175
	0.210151	0.2
	0.220262	0
	0.220257	0.0249989
	0.220257	0.0499991
	0.220254	0.0749994
	0.220253	0.0999997
	0.220253	0.125
	0.220254	0.150001
	0.220257	0.175001
	0.220259	0.2
	0.230435	0
	0.230424	0.024998
	0.230425	0.0499985
	0.230421	0.0749987
	0.23042	0.0999994
	0.230418	0.125
	0.230422	0.150002
	0.230427	0.175002
	0.230427	0.2
	0.240697	0
	0.240675	0.0249981
	0.240679	0.049998
	0.240674	0.0749979
	0.240671	0.0999988
	0.24067	0.125001
	0.240675	0.150003
	0.240681	0.175002
	0.240683	0.2
	0.251067	0
	0.251046	0.0249994
	0.251049	0.0499977
	0.251045	0.0749971
	0.251039	0.0999984
	0.251037	0.125003
	0.251049	0.150005
	0.251054	0.175003
	0.251048	0.2
	0.261593	0
	0.261571	0.0250005
	0.261575	0.0499967
	0.26157	0.0749952
	0.261557	0.0999983
	0.261561	0.125005
	0.261584	0.150007
	0.261578	0.175003
	0.261573	0.2
	0.272305	0
	0.272287	0.025002
	0.272297	0.0499965
	0.272295	0.0749934
	0.272269	0.0999981
	0.272274	0.125007
	0.272304	0.150008
	0.272302	0.175005
	0.272289	0.2
	0.283249	0
	0.283233	0.0250012
	0.283255	0.0499882
	0.283242	0.0749908
	0.28322	0.100003
	0.283237	0.12501
	0.28328	0.150007
	0.283274	0.175005
	0.283242	0.2
	0.294444	0
	0.294463	0.0250002
	0.294509	0.0499842
	0.294453	0.0749853
	0.294467	0.100008
	0.294485	0.125013
	0.294528	0.150005
	0.294527	0.17499
	0.294473	0.2
	0.305992	0
	0.306011	0.0249967
	0.30608	0.0499832
	0.305982	0.0749872
	0.306032	0.100009
	0.306029	0.125013
	0.306082	0.150002
	0.306102	0.174983
	0.30598	0.2
	0.317915	0
	0.317908	0.0249912
	0.317999	0.0499778
	0.317884	0.0749914
	0.317952	0.10001
	0.317933	0.125009
	0.318005	0.150002
	0.318001	0.174984
	0.31786	0.2
	0.330228	0
	0.330211	0.0249943
	0.330323	0.049978
	0.330152	0.0749954
	0.330292	0.100013
	0.330256	0.125008
	0.330335	0.150001
	0.330323	0.174988
	0.330147	0.2
	0.34299	0
	0.342996	0.02501
	0.343114	0.0499913
	0.342908	0.0749944
	0.343102	0.100001
	0.343052	0.125002
	0.343127	0.150013
	0.34311	0.175006
	0.342936	0.2
	0.356254	0
	0.356305	0.0250233
	0.356437	0.0500148
	0.356247	0.0750045
	0.356442	0.0999863
	0.35637	0.124988
	0.356446	0.150024
	0.356432	0.175023
	0.356231	0.2
	0.37013	0
	0.370213	0.02502
	0.370374	0.050042
	0.370215	0.0750206
	0.370387	0.0999798
	0.37028	0.124981
	0.370361	0.15002
	0.370352	0.175034
	0.370145	0.2
	0.384713	0
	0.384808	0.0250144
	0.38499	0.0500585
	0.384875	0.0750332
	0.385014	0.0999753
	0.384873	0.124983
	0.384913	0.150029
	0.385016	0.175037
	0.384786	0.2
	0.400099	0
	0.400173	0.0250187
	0.400378	0.0500675
	0.400315	0.0750514
	0.400477	0.0999919
	0.400254	0.124993
	0.400298	0.150014
	0.400429	0.175022
	0.400261	0.2
	0.416426	0
	0.416485	0.0250233
	0.416672	0.0500483
	0.416697	0.0750391
	0.416827	0.100003
	0.416576	0.124996
	0.416623	0.149981
	0.416783	0.174986
	0.416664	0.2
	0.433855	0
	0.433893	0.0250127
	0.434085	0.0500383
	0.434177	0.075038
	0.434268	0.100014
	0.434026	0.124995
	0.43412	0.149959
	0.434262	0.174947
	0.434095	0.2
	0.452708	0
	0.452688	0.0250028
	0.452865	0.0500183
	0.452969	0.0750206
	0.453023	0.100008
	0.452845	0.12498
	0.452914	0.149949
	0.453034	0.174971
	0.452824	0.2
	0.473583	0
	0.473545	0.0250271
	0.47373	0.050016
	0.473853	0.0749874
	0.473897	0.0999767
	0.473764	0.124958
	0.47379	0.14994
	0.473875	0.174967
	0.473656	0.2
	0.501962	0
	0.501965	0.0250574
	0.50226	0.0500337
	0.502414	0.0749914
	0.502457	0.100011
	0.50226	0.124976
	0.502316	0.149949
	0.502302	0.174943
	0.502023	0.2
	0.537766	0
	0.53761	0.0250155
	0.537981	0.0500322
	0.537658	0.0750439
	0.537694	0.10003
	0.537482	0.125006
	0.537635	0.149971
	0.537988	0.174989
	0.537814	0.2
	0.570856	0
	0.572434	0.0250134
	0.57264	0.050056
	0.572903	0.0750288
	0.572651	0.0999958
	0.572383	0.125004
	0.572849	0.149949
	0.57295	0.174867
	0.570788	0.2
	0.590486	0
	0.597942	0.0261162
	0.597902	0.05009
	0.597906	0.0748821
	0.597502	0.0999643
	0.597674	0.125075
	0.598389	0.149778
	0.598083	0.173664
	0.589913	0.2
	0.60044	0
	0.606986	0.0273534
	0.607676	0.050634
	0.607007	0.0750092
	0.607196	0.0999186
	0.607289	0.125084
	0.607648	0.149423
	0.607155	0.172485
	0.599728	0.2
	0.607375	0
	0.6127	0.027258
	0.613641	0.0508917
	0.613065	0.0748764
	0.613082	0.0999074
	0.613265	0.12502
	0.61364	0.149148
	0.612793	0.172736
	0.606496	0.2
	0.612714	0
	0.617329	0.0264005
	0.618587	0.0507415
	0.618017	0.0750389
	0.617888	0.0999268
	0.618143	0.124914
	0.618604	0.149225
	0.617434	0.173323
	0.611873	0.2
	0.617791	0
	0.621867	0.0261302
	0.623301	0.0508071
	0.622798	0.0752625
	0.622548	0.100015
	0.622855	0.124694
	0.623334	0.149023
	0.621906	0.17379
	0.617016	0.2
	0.622859	0
	0.626916	0.0257784
	0.628257	0.0506911
	0.627755	0.0753584
	0.627469	0.0999878
	0.627814	0.124566
	0.628152	0.149102
	0.626791	0.174129
	0.622128	0.2
	0.628387	0
	0.632019	0.0240896
	0.633669	0.049491
	0.633287	0.0748556
	0.632986	0.100029
	0.63332	0.12501
	0.633566	0.150449
	0.631903	0.176186
	0.627572	0.2
	0.634274	0
	0.637523	0.0235983
	0.638932	0.0486891
	0.638709	0.0744686
	0.638418	0.0999703
	0.638722	0.12537
	0.638872	0.151192
	0.637424	0.176429
	0.633564	0.2
	0.640161	0
	0.643117	0.0235811
	0.644251	0.0486201
	0.644053	0.0742841
	0.6438	0.1
	0.644053	0.125669
	0.644212	0.151356
	0.642967	0.176453
	0.639575	0.2
	0.646127	0
	0.648679	0.0236515
	0.649596	0.0487754
	0.649385	0.0743513
	0.649153	0.0999639
	0.64938	0.125537
	0.649568	0.151079
	0.648506	0.176292
	0.645579	0.2
	0.652054	0
	0.654207	0.0237522
	0.654959	0.0488114
	0.654711	0.074394
	0.654514	0.100004
	0.654717	0.125543
	0.654914	0.151023
	0.65401	0.176199
	0.651508	0.2
	0.657881	0
	0.659724	0.0239781
	0.660328	0.0491006
	0.660058	0.0745038
	0.659872	0.0999734
	0.660062	0.125414
	0.660259	0.150781
	0.659502	0.176015
	0.657344	0.2
	0.663628	0
	0.665202	0.0241739
	0.665706	0.0493104
	0.66543	0.0746542
	0.665249	0.100042
	0.66543	0.125372
	0.665616	0.150665
	0.664957	0.175838
	0.663113	0.2
	0.669302	0
	0.670658	0.0242949
	0.671075	0.0494537
	0.670823	0.0746947
	0.670637	0.100004
	0.670809	0.125307
	0.670976	0.150567
	0.670382	0.175739
	0.66882	0.2
	0.674939	0
	0.676096	0.0244168
	0.67645	0.0495636
	0.676228	0.074754
	0.676041	0.100001
	0.6762	0.125261
	0.676343	0.150506
	0.6758	0.175637
	0.674483	0.2
	0.680538	0
	0.681511	0.0245226
	0.681826	0.0496369
	0.681643	0.0747908
	0.681452	0.100001
	0.681604	0.125253
	0.681715	0.150482
	0.681213	0.175567
	0.680105	0.2
	0.68611	0
	0.686917	0.0245933
	0.687202	0.0497003
	0.687067	0.0748227
	0.686875	0.100027
	0.687019	0.125242
	0.687093	0.150461
	0.68663	0.175506
	0.685694	0.2
	0.691648	0
	0.692317	0.0246779
	0.692582	0.049748
	0.692498	0.0748308
	0.692304	0.100022
	0.692445	0.125215
	0.692478	0.150436
	0.692052	0.175437
	0.691253	0.2
	0.69715	0
	0.697717	0.0247385
	0.697971	0.0497899
	0.697933	0.0748635
	0.697742	0.100047
	0.69788	0.125198
	0.697868	0.150402
	0.697481	0.175363
	0.696787	0.2
	0.702624	0
	0.70311	0.0247869
	0.703368	0.0498265
	0.703366	0.0748904
	0.703183	0.100057
	0.703322	0.125195
	0.703262	0.150374
	0.702908	0.175337
	0.702302	0.2
	0.708082	0
	0.708502	0.0247939
	0.708771	0.0498337
	0.708806	0.0748953
	0.708627	0.100047
	0.708763	0.125169
	0.708657	0.150343
	0.708337	0.175287
	0.707808	0.2
	0.713532	0
	0.713895	0.0248054
	0.714181	0.0498233
	0.71424	0.0748886
	0.71407	0.100039
	0.714201	0.125177
	0.714051	0.150335
	0.713763	0.175314
	0.713308	0.2
	0.718981	0
	0.719293	0.024813
	0.719593	0.0498122
	0.719677	0.0748978
	0.719504	0.100033
	0.719641	0.125179
	0.719443	0.150337
	0.719193	0.175285
	0.718807	0.2
	0.724435	0
	0.724697	0.0248093
	0.725005	0.0498107
	0.725114	0.0748923
	0.724937	0.100025
	0.725071	0.125176
	0.724842	0.150313
	0.724624	0.175288
	0.724305	0.2
	0.729896	0
	0.73011	0.0248083
	0.730416	0.0498051
	0.73055	0.0748964
	0.730369	0.100041
	0.730498	0.125184
	0.730245	0.150282
	0.730056	0.175238
	0.729797	0.2
	0.735357	0
	0.735528	0.0248163
	0.735836	0.04982
	0.735981	0.0749109
	0.735802	0.100047
	0.735928	0.125172
	0.735662	0.150241
	0.73549	0.175206
	0.735286	0.2
	0.740822	0
	0.74095	0.0248429
	0.741264	0.0498204
	0.741415	0.0749273
	0.741237	0.100052
	0.741362	0.125152
	0.741089	0.150202
	0.74093	0.175168
	0.740776	0.2
	0.746304	0
	0.746381	0.0248439
	0.746703	0.0498523
	0.746854	0.0749586
	0.746679	0.100047
	0.746802	0.125121
	0.746529	0.150174
	0.746382	0.175144
	0.746278	0.2
	0.751803	0
	0.751845	0.0248641
	0.752158	0.049852
	0.752302	0.0749733
	0.752135	0.100042
	0.752253	0.125093
	0.751984	0.150149
	0.751856	0.175098
	0.751788	0.2
	0.757326	0
	0.757326	0.0248841
	0.757646	0.0498691
	0.757773	0.0749886
	0.757608	0.100036
	0.757721	0.125069
	0.75746	0.150116
	0.757345	0.175057
	0.757298	0.2
	0.762856	0
	0.762836	0.0249101
	0.763165	0.0498871
	0.763268	0.0749999
	0.763106	0.100029
	0.763208	0.125051
	0.762956	0.150083
	0.762869	0.175022
	0.762842	0.2
	0.768538	0
	0.768432	0.024951
	0.768764	0.0499151
	0.768853	0.0750059
	0.768693	0.100021
	0.768775	0.125035
	0.768551	0.150045
	0.768534	0.175002
	0.768571	0.2
	0.774628	0
	0.774475	0.0249841
	0.774741	0.0499531
	0.774837	0.0750048
	0.774707	0.10001
	0.774747	0.125021
	0.77459	0.150018
	0.774629	0.174997
	0.774638	0.2
	0.782028	0
	0.781915	0.0249988
	0.781982	0.0499843
	0.78201	0.0749995
	0.781976	0.100003
	0.781979	0.12501
	0.781936	0.150005
	0.781945	0.174998
	0.781965	0.2
	0.790724	0
	0.790718	0.0249994
	0.790729	0.0499964
	0.790735	0.0749993
	0.790728	0.100001
	0.790727	0.125003
	0.790719	0.150001
	0.79072	0.175001
	0.790709	0.2
	0.800249	0
	0.800254	0.0249995
	0.800255	0.0499994
	0.800256	0.0749998
	0.800255	0.1
	0.800254	0.125001
	0.800252	0.150001
	0.800252	0.175001
	0.800244	0.2
	0.810085	0
	0.810088	0.0249997
	0.810088	0.0499998
	0.810088	0.075
	0.810088	0.1
	0.810088	0.125
	0.810087	0.15
	0.810087	0.175
	0.810083	0.2
	0.820029	0
	0.82003	0.0249998
	0.82003	0.0499999
	0.82003	0.075
	0.82003	0.1
	0.82003	0.125
	0.82003	0.15
	0.82003	0.175
	0.820029	0.2
	0.83001	0
	0.83001	0.0249999
	0.830011	0.05
	0.830011	0.075
	0.830011	0.1
	0.830011	0.125
	0.83001	0.15
	0.83001	0.175
	0.83001	0.2
	0.840003	0
	0.840004	0.025
	0.840004	0.05
	0.840004	0.075
	0.840004	0.1
	0.840004	0.125
	0.840004	0.15
	0.840004	0.175
	0.840003	0.2
	0.850001	0
	0.850001	0.025
	0.850001	0.05
	0.850001	0.075
	0.850001	0.1
	0.850001	0.125
	0.850001	0.15
	0.850001	0.175
	0.850001	0.2
	0.86	0
	0.86	0.025
	0.86	0.05
	0.86	0.075
	0.86	0.1
	0.86	0.125
	0.86	0.15
	0.86	0.175
	0.86	0.2
	0.87	0
	0.87	0.025
	0.87	0.05
	0.87	0.075
	0.87	0.1
	0.87	0.125
	0.87	0.15
	0.87	0.175
	0.87	0.2
	0.88	0
	0.88	0.025
	0.88	0.05
	0.88	0.075
	0.88	0.1
	0.88	0.125
	0.88	0.15
	0.88	0.175
	0.88	0.2
	0.89	0
	0.89	0.025
	0.89	0.05
	0.89	0.075
	0.89	0.1
	0.89	0.125
	0.89	0.15
	0.89	0.175
	0.89	0.2
	0.9	0
	0.9	0.025
	0.9	0.05
	0.9	0.075
	0.9	0.1
	0.9	0.125
	0.9	0.15
	0.9	0.175
	0.9	0.2
	0.91	0
	0.91	0.025
	0.91	0.05
	0.91	0.075
	0.91	0.1
	0.91	0.125
	0.91	0.15
	0.91	0.175
	0.91	0.2
	0.92	0
	0.92	0.025
	0.92	0.05
	0.92	0.075
	0.92	0.1
	0.92	0.125
	0.92	0.15
	0.92	0.175
	0.92	0.2
	0.93	0
	0.93	0.025
	0.93	0.05
	0.93	0.075
	0.93	0.1
	0.93	0.125
	0.93	0.15
	0.93	0.175
	0.93	0.2
	0.94	0
	0.94	0.025
	0.94	0.05
	0.94	0.075
	0.94	0.1
	0.94	0.125
	0.94	0.15
	0.94	0.175
	0.94	0.2
	0.95	0
	0.95	0.025
	0.95	0.05
	0.95	0.075
	0.95	0.1
	0.95	0.125
	0.95	0.15
	0.95	0.175
	0.95	0.2
	0.96	0
	0.96	0.025
	0.96	0.05
	0.96	0.075
	0.96	0.1
	0.96	0.125
	0.96	0.15
	0.96	0.175
	0.96	0.2
	0.97	0
	0.97	0.025
	0.97	0.05
	0.97	0.075
	0.97	0.1
	0.97	0.125
	0.97	0.15
	0.97	0.175
	0.97	0.2
	0.98	0
	0.98	0.025
	0.98	0.05
	0.98	0.075
	0.98	0.1
	0.98	0.125
	0.98	0.15
	0.98	0.175
	0.98	0.2
	0.99	0
	0.99	0.025
	0.99	0.05
	0.99	0.075
	0.99	0.1
	0.99	0.125
	0.99	0.15
	0.99	0.175
	0.99	0.2
	1	0
	1	0.025
	1	0.05
	1	0.075
	1	0.1
	1	0.125
	1	0.15
	1	0.175
	1	0.2
	1	10	11	2
	2	11	12	3
	3	12	13	4
	4	13	14	5
	5	14	15	6
	6	15	16	7
	7	16	17	8
	8	17	18	9
	10	19	20	11
	11	20	21	12
	12	21	22	13
	13	22	23	14
	14	23	24	15
	15	24	25	16
	16	25	26	17
	17	26	27	18
	19	28	29	20
	20	29	30	21
	21	30	31	22
	22	31	32	23
	23	32	33	24
	24	33	34	25
	25	34	35	26
	26	35	36	27
	28	37	38	29
	29	38	39	30
	30	39	40	31
	31	40	41	32
	32	41	42	33
	33	42	43	34
	34	43	44	35
	35	44	45	36
	37	46	47	38
	38	47	48	39
	39	48	49	40
	40	49	50	41
	41	50	51	42
	42	51	52	43
	43	52	53	44
	44	53	54	45
	46	55	56	47
	47	56	57	48
	48	57	58	49
	49	58	59	50
	50	59	60	51
	51	60	61	52
	52	61	62	53
	53	62	63	54
	55	64	65	56
	56	65	66	57
	57	66	67	58
	58	67	68	59
	59	68	69	60
	60	69	70	61
	61	70	71	62
	62	71	72	63
	64	73	74	65
	65	74	75	66
	66	75	76	67
	67	76	77	68
	68	77	78	69
	69	78	79	70
	70	79	80	71
	71	80	81	72
	73	82	83	74
	74	83	84	75
	75	84	85	76
	76	85	86	77
	77	86	87	78
	78	87	88	79
	79	88	89	80
	80	89	90	81
	82	91	92	83
	83	92	93	84
	84	93	94	85
	85	94	95	86
	86	95	96	87
	87	96	97	88
	88	97	98	89
	89	98	99	90
	91	100	101	92
	92	101	102	93
	93	102	103	94
	94	103	104	95
	95	104	105	96
	96	105	106	97
	97	106	107	98
	98	107	108	99
	100	109	110	101
	101	110	111	102
	102	111	112	103
	103	112	113	104
	104	113	114	105
	105	114	115	106
	106	115	116	107
	107	116	117	108
	109	118	119	110
	110	119	120	111
	111	120	121	112
	112	121	122	113
	113	122	123	114
	114	123	124	115
	115	124	125	116
	116	125	126	117
	118	127	128	119
	119	128	129	120
	120	129	130	121
	121	130	131	122
	122	131	132	123
	123	132	133	124
	124	133	134	125
	125	134	135	126
	127	136	137	128
	128	137	138	129
	129	138	139	130
	130	139	140	131
	131	140	141	132
	132	141	142	133
	133	142	143	134
	134	143	144	135
	136	145	146	137
	137	146	147	138
	138	147	148	139
	139	148	149	140
	140	149	150	141
	141	150	151	142
	142	151	152	143
	143	152	153	144
	145	154	155	146
	146	155	156	147
	147	156	157	148
	148	157	158	149
	149	158	159	150
	150	159	160	151
	151	160	161	152
	152	161	162	153
	154	163	164	155
	155	164	165	156
	156	165	166	157
	157	166	167	158
	158	167	168	159
	159	168	169	160
	160	169	170	161
	161	170	171	162
	163	172	173	164
	164	173	174	165
	165	174	175	166
	166	175	176	167
	167	176	177	168
	168	177	178	169
	169	178	179	170
	170	179	180	171
	172	181	182	173
	173	182	183	174
	174	183	184	175
	175	184	185	176
	176	185	186	177
	177	186	187	178
	178	187	188	179
	179	188	189	180
	181	190	191	182
	182	191	192	183
	183	192	193	184
	184	193	194	185
	185	194	195	186
	186	195	196	187
	187	196	197	188
	188	197	198	189
	190	199	200	191
	191	200	201	192
	192	201	202	193
	193	202	203	194
	194	203	204	195
	195	204	205	196
	196	205	206	197
	197	206	207	198
	199	208	209	200
	200	209	210	201
	201	210	211	202
	202	211	212	203
	203	212	213	204
	204	213	214	205
	205	214	215	206
	206	215	216	207
	208	217	218	209
	209	218	219	210
	210	219	220	211
	211	220	221	212
	212	221	222	213
	213	222	223	214
	214	223	224	215
	215	224	225	216
	217	226	227	218
	218	227	228	219
	219	228	229	220
	220	229	230	221
	221	230	231	222
	222	231	232	223
	223	232	233	224
	224	233	234	225
	226	235	236	227
	227	236	237	228
	228	237	238	229
	229	238	239	230
	230	239	240	231
	231	240	241	232
	232	241	242	233
	233	242	243	234
	235	244	245	236
	236	245	246	237
	237	246	247	238
	238	247	248	239
	239	248	249	240
	240	249	250	241
	241	250	251	242
	242	251	252	243
	244	253	254	245
	245	254	255	246
	246	255	256	247
	247	256	257	248
	248	257	258	249
	249	258	259	250
	250	259	260	251
	251	260	261	252
	253	262	263	254
	254	263	264	255
	255	264	265	256
	256	265	266	257
	257	266	267	258
	258	267	268	259
	259	268	269	260
	260	269	270	261
	262	271	272	263
	263	272	273	264
	264	273	274	265
	265	274	275	266
	266	275	276	267
	267	276	277	268
	268	277	278	269
	269	278	279	270
	271	280	281	272
	272	281	282	273
	273	282	283	274
	274	283	284	275
	275	284	285	276
	276	285	286	277
	277	286	287	278
	278	287	288	279
	280	289	290	281
	281	290	291	282
	282	291	292	283
	283	292	293	284
	284	293	294	285
	285	294	295	286
	286	295	296	287
	287	296	297	288
	289	298	299	290
	290	299	300	291
	291	300	301	292
	292	301	302	293
	293	302	303	294
	294	303	304	295
	295	304	305	296
	296	305	306	297
	298	307	308	299
	299	308	309	300
	300	309	310	301
	301	310	311	302
	302	311	312	303
	303	312	313	304
	304	313	314	305
	305	314	315	306
	307	316	317	308
	308	317	318	309
	309	318	319	310
	310	319	320	311
	311	320	321	312
	312	321	322	313
	313	322	323	314
	314	323	324	315
	316	325	326	317
	317	326	327	318
	318	327	328	319
	319	328	329	320
	320	329	330	321
	321	330	331	322
	322	331	332	323
	323	332	333	324
	325	334	335	326
	326	335	336	327
	327	336	337	328
	328	337	338	329
	329	338	339	330
	330	339	340	331
	331	340	341	332
	332	341	342	333
	334	343	344	335
	335	344	345	336
	336	345	346	337
	337	346	347	338
	338	347	348	339
	339	348	349	340
	340	349	350	341
	341	350	351	342
	343	352	353	344
	344	353	354	345
	345	354	355	346
	346	355	356	347
	347	356	357	348
	348	357	358	349
	349	358	359	350
	350	359	360	351
	352	361	362	353
	353	362	363	354
	354	363	364	355
	355	364	365	356
	356	365	366	357
	357	366	367	358
	358	367	368	359
	359	368	369	360
	361	370	371	362
	362	371	372	363
	363	372	373	364
	364	373	374	365
	365	374	375	366
	366	375	376	367
	367	376	377	368
	368	377	378	369
	370	379	380	371
	371	380	381	372
	372	381	382	373
	373	382	383	374
	374	383	384	375
	375	384	385	376
	376	385	386	377
	377	386	387	378
	379	388	389	380
	380	389	390	381
	381	390	391	382
	382	391	392	383
	383	392	393	384
	384	393	394	385
	385	394	395	386
	386	395	396	387
	388	397	398	389
	389	398	399	390
	390	399	400	391
	391	400	401	392
	392	401	402	393
	393	402	403	394
	394	403	404	395
	395	404	405	396
	397	406	407	398
	398	407	408	399
	399	408	409	400
	400	409	410	401
	401	410	411	402
	402	411	412	403
	403	412	413	404
	404	413	414	405
	406	415	416	407
	407	416	417	408
	408	417	418	409
	409	418	419	410
	410	419	420	411
	411	420	421	412
	412	421	422	413
	413	422	423	414
	415	424	425	416
	416	425	426	417
	417	426	427	418
	418	427	428	419
	419	428	429	420
	420	429	430	421
	421	430	431	422
	422	431	432	423
	424	433	434	425
	425	434	435	426
	426	435	436	427
	427	436	437	428
	428	437	438	429
	429	438	439	430
	430	439	440	431
	431	440	441	432
	433	442	443	434
	434	443	444	435
	435	444	445	436
	436	445	446	437
	437	446	447	438
	438	447	448	439
	439	448	449	440
	440	449	450	441
	442	451	452	443
	443	452	453	444
	444	453	454	445
	445	454	455	446
	446	455	456	447
	447	456	457	448
	448	457	458	449
	449	458	459	450
	451	460	461	452
	452	461	462	453
	453	462	463	454
	454	463	464	455
	455	464	465	456
	456	465	466	457
	457	466	467	458
	458	467	468	459
	460	469	470	461
	461	470	471	462
	462	471	472	463
	463	472	473	464
	464	473	474	465
	465	474	475	466
	466	475	476	467
	467	476	477	468
	469	478	479	470
	470	479	480	471
	471	480	481	472
	472	481	482	473
	473	482	483	474
	474	483	484	475
	475	484	485	476
	476	485	486	477
	478	487	488	479
	479	488	489	480
	480	489	490	481
	481	490	491	482
	482	491	492	483
	483	492	493	484
	484	493	494	485
	485	494	495	486
	487	496	497	488
	488	497	498	489
	489	498	499	490
	490	499	500	491
	491	500	501	492
	492	501	502	493
	493	502	503	494
	494	503	504	495
	496	505	506	497
	497	506	507	498
	498	507	508	499
	499	508	509	500
	500	509	510	501
	501	510	511	502
	502	511	512	503
	503	512	513	504
	505	514	515	506
	506	515	516	507
	507	516	517	508
	508	517	518	509
	509	518	519	510
	510	519	520	511
	511	520	521	512
	512	521	522	513
	514	523	524	515
	515	524	525	516
	516	525	526	517
	517	526	527	518
	518	527	528	519
	519	528	529	520
	520	529	530	521
	521	530	531	522
	523	532	533	524
	524	533	534	525
	525	534	535	526
	526	535	536	527
	527	536	537	528
	528	537	538	529
	529	538	539	530
	530	539	540	531
	532	541	542	533
	533	542	543	534
	534	543	544	535
	535	544	545	536
	536	545	546	537
	537	546	547	538
	538	547	548	539
	539	548	549	540
	541	550	551	542
	542	551	552	543
	543	552	553	544
	544	553	554	545
	545	554	555	546
	546	555	556	547
	547	556	557	548
	548	557	558	549
	550	559	560	551
	551	560	561	552
	552	561	562	553
	553	562	563	554
	554	563	564	555
	555	564	565	556
	556	565	566	557
	557	566	567	558
	559	568	569	560
	560	569	570	561
	561	570	571	562
	562	571	572	563
	563	572	573	564
	564	573	574	565
	565	574	575	566
	566	575	576	567
	568	577	578	569
	569	578	579	570
	570	579	580	571
	571	580	581	572
	572	581	582	573
	573	582	583	574
	574	583	584	575
	575	584	585	576
	577	586	587	578
	578	587	588	579
	579	588	589	580
	580	589	590	581
	581	590	591	582
	582	591	592	583
	583	592	593	584
	584	593	594	585
	586	595	596	587
	587	596	597	588
	588	597	598	589
	589	598	599	590
	590	599	600	591
	591	600	601	592
	592	601	602	593
	593	602	603	594
	595	604	605	596
	596	605	606	597
	597	606	607	598
	598	607	608	599
	599	608	609	600
	600	609	610	601
	601	610	611	602
	602	611	612	603
	604	613	614	605
	605	614	615	606
	606	615	616	607
	607	616	617	608
	608	617	618	609
	609	618	619	610
	610	619	620	611
	611	620	621	612
	613	622	623	614
	614	623	624	615
	615	624	625	616
	616	625	626	617
	617	626	627	618
	618	627	628	619
	619	628	629	620
	620	629	630	621
	622	631	632	623
	623	632	633	624
	624	633	634	625
	625	634	635	626
	626	635	636	627
	627	636	637	628
	628	637	638	629
	629	638	639	630
	631	640	641	632
	632	641	642	633
	633	642	643	634
	634	643	644	635
	635	644	645	636
	636	645	646	637
	637	646	647	638
	638	647	648	639
	640	649	650	641
	641	650	651	642
	642	651	652	643
	643	652	653	644
	644	653	654	645
	645	654	655	646
	646	655	656	647
	647	656	657	648
	649	658	659	650
	650	659	660	651
	651	660	661	652
	652	661	662	653
	653	662	663	654
	654	663	664	655
	655	664	665	656
	656	665	666	657
	658	667	668	659
	659	668	669	660
	660	669	670	661
	661	670	671	662
	662	671	672	663
	663	672	673	664
	664	673	674	665
	665	674	675	666
	667	676	677	668
	668	677	678	669
	669	678	679	670
	670	679	680	671
	671	680	681	672
	672	681	682	673
	673	682	683	674
	674	683	684	675
	676	685	686	677
	677	686	687	678
	678	687	688	679
	679	688	689	680
	680	689	690	681
	681	690	691	682
	682	691	692	683
	683	692	693	684
	685	694	695	686
	686	695	696	687
	687	696	697	688
	688	697	698	689
	689	698	699	690
	690	699	700	691
	691	700	701	692
	692	701	702	693
	694	703	704	695
	695	704	705	696
	696	705	706	697
	697	706	707	698
	698	707	708	699
	699	708	709	700
	700	709	710	701
	701	710	711	702
	703	712	713	704
	704	713	714	705
	705	714	715	706
	706	715	716	707
	707	716	717	708
	708	717	718	709
	709	718	719	710
	710	719	720	711
	712	721	722	713
	713	722	723	714
	714	723	724	715
	715	724	725	716
	716	725	726	717
	717	726	727	718
	718	727	728	719
	719	728	729	720
	721	730	731	722
	722	731	732	723
	723	732	733	724
	724	733	734	725
	725	734	735	726
	726	735	736	727
	727	736	737	728
	728	737	738	729
	730	739	740	731
	731	740	741	732
	732	741	742	733
	733	742	743	734
	734	743	744	735
	735	744	745	736
	736	745	746	737
	737	746	747	738
	739	748	749	740
	740	749	750	741
	741	750	751	742
	742	751	752	743
	743	752	753	744
	744	753	754	745
	745	754	755	746
	746	755	756	747
	748	757	758	749
	749	758	759	750
	750	759	760	751
	751	760	761	752
	752	761	762	753
	753	762	763	754
	754	763	764	755
	755	764	765	756
	757	766	767	758
	758	767	768	759
	759	768	769	760
	760	769	770	761
	761	770	771	762
	762	771	772	763
	763	772	773	764
	764	773	774	765
	766	775	776	767
	767	776	777	768
	768	777	778	769
	769	778	779	770
	770	779	780	771
	771	780	781	772
	772	781	782	773
	773	782	783	774
	775	784	785	776
	776	785	786	777
	777	786	787	778
	778	787	788	779
	779	788	789	780
	780	789	790	781
	781	790	791	782
	782	791	792	783
	784	793	794	785
	785	794	795	786
	786	795	796	787
	787	796	797	788
	788	797	798	789
	789	798	799	790
	790	799	800	791
	791	800	801	792
	793	802	803	794
	794	803	804	795
	795	804	805	796
	796	805	806	797
	797	806	807	798
	798	807	808	799
	799	808	809	800
	800	809	810	801
	802	811	812	803
	803	812	813	804
	804	813	814	805
	805	814	815	806
	806	815	816	807
	807	816	817	808
	808	817	818	809
	809	818	819	810
	811	820	821	812
	812	821	822	813
	813	822	823	814
	814	823	824	815
	815	824	825	816
	816	825	826	817
	817	826	827	818
	818	827	828	819
	820	829	830	821
	821	830	831	822
	822	831	832	823
	823	832	833	824
	824	833	834	825
	825	834	835	826
	826	835	836	827
	827	836	837	828
	829	838	839	830
	830	839	840	831
	831	840	841	832
	832	841	842	833
	833	842	843	834
	834	843	844	835
	835	844	845	836
	836	845	846	837
	838	847	848	839
	839	848	849	840
	840	849	850	841
	841	850	851	842
	842	851	852	843
	843	852	853	844
	844	853	854	845
	845	854	855	846
	847	856	857	848
	848	857	858	849
	849	858	859	850
	850	859	860	851
	851	860	861	852
	852	861	862	853
	853	862	863	854
	854	863	864	855
	856	865	866	857
	857	866	867	858
	858	867	868	859
	859	868	869	860
	860	869	870	861
	861	870	871	862
	862	871	872	863
	863	872	873	864
	865	874	875	866
	866	875	876	867
	867	876	877	868
	868	877	878	869
	869	878	879	870
	870	879	880	871
	871	880	881	872
	872	881	882	873
	874	883	884	875
	875	884	885	876
	876	885	886	877
	877	886	887	878
	878	887	888	879
	879	888	889	880
	880	889	890	881
	881	890	891	882
	883	892	893	884
	884	893	894	885
	885	894	895	886
	886	895	896	887
	887	896	897	888
	888	897	898	889
	889	898	899	890
	890	899	900	891
	892	901	902	893
	893	902	903	894
	894	903	904	895
	895	904	905	896
	896	905	906	897
	897	906	907	898
	898	907	908	899
	899	908	909	900
