VARIABLES = X, Y, ux
ZONE N = 2211, E = 2000
ZONETYPE = FEQUADRILATERAL
DATAPACKING = BLOCK
varlocation=([3]=cellcentered)
0
0
0
0
0
0
0
0
0
0
0
0.005
0.005
0.005
0.005
0.005
0.005
0.005
0.005
0.005
0.005
0.005
0.01
0.01
0.01
0.01
0.01
0.01
0.01
0.01
0.01
0.01
0.01
0.015
0.015
0.015
0.015
0.015
0.015
0.015
0.015
0.015
0.015
0.015
0.02
0.02
0.02
0.02
0.02
0.02
0.02
0.02
0.02
0.02
0.02
0.025
0.025
0.025
0.025
0.025
0.025
0.025
0.025
0.025
0.025
0.025
0.03
0.03
0.03
0.03
0.03
0.03
0.03
0.03
0.03
0.03
0.03
0.035
0.035
0.035
0.035
0.035
0.035
0.035
0.035
0.035
0.035
0.035
0.04
0.04
0.04
0.04
0.04
0.04
0.04
0.04
0.04
0.04
0.04
0.045
0.045
0.045
0.045
0.045
0.045
0.045
0.045
0.045
0.045
0.045
0.05
0.05
0.05
0.05
0.05
0.05
0.05
0.05
0.05
0.05
0.05
0.055
0.055
0.055
0.055
0.055
0.055
0.055
0.055
0.055
0.055
0.055
0.06
0.06
0.06
0.06
0.06
0.06
0.06
0.06
0.06
0.06
0.06
0.065
0.065
0.065
0.065
0.065
0.065
0.065
0.065
0.065
0.065
0.065
0.07
0.07
0.07
0.07
0.07
0.07
0.07
0.07
0.07
0.07
0.07
0.075
0.075
0.075
0.075
0.075
0.075
0.075
0.075
0.075
0.075
0.075
0.08
0.08
0.08
0.08
0.08
0.08
0.08
0.08
0.08
0.08
0.08
0.085
0.085
0.085
0.085
0.085
0.085
0.085
0.085
0.085
0.085
0.085
0.09
0.09
0.09
0.09
0.09
0.09
0.09
0.09
0.09
0.09
0.09
0.095
0.095
0.095
0.095
0.095
0.095
0.095
0.095
0.095
0.095
0.095
0.1
0.1
0.1
0.1
0.1
0.1
0.1
0.1
0.1
0.1
0.1
0.105
0.105
0.105
0.105
0.105
0.105
0.105
0.105
0.105
0.105
0.105
0.11
0.11
0.11
0.11
0.11
0.11
0.11
0.11
0.11
0.11
0.11
0.115
0.115
0.115
0.115
0.115
0.115
0.115
0.115
0.115
0.115
0.115
0.12
0.12
0.12
0.12
0.12
0.12
0.12
0.12
0.12
0.12
0.12
0.125
0.125
0.125
0.125
0.125
0.125
0.125
0.125
0.125
0.125
0.125
0.13
0.13
0.13
0.13
0.13
0.13
0.13
0.13
0.13
0.13
0.13
0.135
0.135
0.135
0.135
0.135
0.135
0.135
0.135
0.135
0.135
0.135
0.14
0.14
0.14
0.14
0.14
0.14
0.14
0.14
0.14
0.14
0.14
0.145001
0.145001
0.145001
0.145001
0.145001
0.145001
0.145001
0.145001
0.145001
0.145001
0.145001
0.150001
0.150001
0.150001
0.150001
0.150001
0.150001
0.150001
0.150001
0.150001
0.150001
0.150001
0.155002
0.155002
0.155002
0.155002
0.155002
0.155002
0.155002
0.155002
0.155002
0.155002
0.155002
0.160003
0.160004
0.160004
0.160004
0.160004
0.160004
0.160004
0.160004
0.160004
0.160004
0.160004
0.165006
0.165006
0.165006
0.165006
0.165006
0.165006
0.165006
0.165006
0.165006
0.165006
0.165006
0.170009
0.17001
0.17001
0.17001
0.17001
0.170009
0.170009
0.17001
0.17001
0.17001
0.170009
0.175015
0.175015
0.175015
0.175015
0.175015
0.175015
0.175015
0.175015
0.175015
0.175015
0.175015
0.180023
0.180023
0.180024
0.180023
0.180024
0.180023
0.180024
0.180024
0.180024
0.180024
0.180023
0.185035
0.185035
0.185036
0.185036
0.185036
0.185035
0.185036
0.185036
0.185036
0.185037
0.185035
0.190052
0.190052
0.190054
0.190053
0.190055
0.190053
0.190055
0.190054
0.190055
0.190056
0.190053
0.195077
0.195077
0.195079
0.195079
0.195081
0.195078
0.195081
0.19508
0.19508
0.195082
0.195078
0.200112
0.200113
0.200115
0.200113
0.200118
0.200113
0.200117
0.200115
0.200115
0.20012
0.200113
0.205159
0.205162
0.205163
0.205161
0.205168
0.205161
0.205166
0.205164
0.205163
0.20517
0.205161
0.210223
0.210227
0.210228
0.210226
0.210234
0.210225
0.210233
0.210229
0.210227
0.210238
0.210225
0.215307
0.215312
0.215313
0.215313
0.215321
0.21531
0.215319
0.215315
0.215312
0.215324
0.21531
0.220416
0.220421
0.220423
0.220424
0.220431
0.22042
0.220431
0.220425
0.220421
0.220434
0.22042
0.225554
0.225558
0.225561
0.225566
0.22557
0.225559
0.225571
0.225564
0.225559
0.225572
0.225559
0.230726
0.230726
0.230733
0.230741
0.230741
0.230732
0.230744
0.230736
0.230731
0.230742
0.230732
0.235936
0.235932
0.235943
0.235956
0.23595
0.235944
0.235955
0.235946
0.23594
0.235955
0.235944
0.241189
0.241178
0.241196
0.241215
0.241199
0.241198
0.241208
0.241197
0.241192
0.241208
0.241198
0.246489
0.24647
0.246495
0.246521
0.246493
0.246499
0.246507
0.246495
0.24649
0.246507
0.246499
0.25184
0.251811
0.251846
0.251879
0.251837
0.251851
0.251856
0.251844
0.251838
0.251855
0.251851
0.257246
0.257208
0.257252
0.257294
0.257235
0.257259
0.25726
0.257248
0.257241
0.257258
0.257259
0.262711
0.262677
0.262717
0.262768
0.262691
0.262726
0.262722
0.26271
0.262702
0.262733
0.262726
0.26824
0.268209
0.268246
0.268307
0.268212
0.268257
0.268246
0.268236
0.268225
0.26827
0.268257
0.273837
0.27381
0.273843
0.273911
0.273801
0.273856
0.273837
0.27383
0.273816
0.273875
0.273856
0.279507
0.279483
0.279513
0.279577
0.279455
0.279527
0.279499
0.279495
0.279478
0.27955
0.279527
0.285252
0.285234
0.28526
0.285322
0.2852
0.285275
0.285235
0.285237
0.285215
0.285301
0.285275
0.29108
0.291087
0.291085
0.291126
0.291029
0.291105
0.29105
0.291058
0.291032
0.291132
0.291105
0.296991
0.297025
0.296995
0.29701
0.296959
0.297018
0.296947
0.296963
0.296934
0.297048
0.297018
0.302991
0.303051
0.302994
0.302984
0.30298
0.30302
0.302931
0.302957
0.302924
0.303053
0.30302
0.309084
0.309171
0.309088
0.309054
0.309095
0.309115
0.309007
0.309043
0.309008
0.309152
0.309115
0.315274
0.31539
0.315282
0.315222
0.315307
0.315308
0.31518
0.315226
0.31519
0.315349
0.315308
0.321567
0.321712
0.32158
0.321495
0.321624
0.321603
0.321454
0.32151
0.321475
0.32165
0.321603
0.327966
0.328143
0.327988
0.327877
0.328048
0.328005
0.327835
0.327901
0.327867
0.32806
0.328005
0.334479
0.334689
0.33451
0.334374
0.334586
0.33452
0.334328
0.334403
0.334374
0.334585
0.33452
0.341109
0.341353
0.341152
0.340991
0.341243
0.341152
0.340939
0.341021
0.340999
0.341231
0.341152
0.347862
0.348142
0.34792
0.347733
0.348025
0.347908
0.347673
0.347762
0.34775
0.348003
0.347908
0.354743
0.355063
0.35482
0.354608
0.354938
0.354792
0.354536
0.354631
0.354633
0.354907
0.354792
0.361759
0.362121
0.361858
0.361621
0.361988
0.361811
0.361536
0.361636
0.361654
0.361949
0.361811
0.368916
0.369321
0.369043
0.368778
0.369183
0.36897
0.368677
0.368783
0.368821
0.369137
0.36897
0.37622
0.37667
0.376381
0.376088
0.376528
0.376277
0.375967
0.37608
0.376141
0.376475
0.376277
0.383678
0.384171
0.383882
0.383558
0.384031
0.383738
0.383413
0.383536
0.383621
0.383971
0.383738
0.391299
0.391826
0.391551
0.391197
0.3917
0.391362
0.391025
0.391162
0.39127
0.391627
0.391362
0.399095
0.399637
0.399395
0.399014
0.399539
0.399161
0.39881
0.398969
0.399105
0.399427
0.399161
0.407075
0.407619
0.407422
0.407018
0.407558
0.407144
0.406775
0.406956
0.40712
0.407464
0.407144
0.415228
0.415811
0.415638
0.415215
0.415767
0.4153
0.414923
0.41512
0.415332
0.41568
0.4153
0.423597
0.424227
0.424047
0.423613
0.424194
0.423672
0.423224
0.423407
0.423736
0.424161
0.423672
0.432242
0.432887
0.432658
0.432214
0.432816
0.43232
0.43179
0.431911
0.432276
0.432774
0.43232
0.441038
0.44179
0.441481
0.441028
0.441649
0.441119
0.440602
0.440592
0.441076
0.441586
0.441119
0.450107
0.450869
0.45052
0.450061
0.450735
0.450191
0.449548
0.449462
0.450099
0.45059
0.450191
0.459438
0.460155
0.459781
0.459311
0.460015
0.459525
0.458801
0.458665
0.459253
0.459736
0.459525
0.46897
0.469651
0.469262
0.468773
0.469487
0.46906
0.468323
0.468177
0.468598
0.469028
0.46906
0.478685
0.479346
0.478952
0.478441
0.479157
0.478777
0.478064
0.477926
0.478147
0.478525
0.478777
0.48856
0.489223
0.488829
0.4883
0.489013
0.488655
0.487995
0.487874
0.487899
0.488207
0.488655
0.498567
0.499267
0.498878
0.498327
0.499029
0.498664
0.498074
0.497986
0.497833
0.498098
0.498664
0.508659
0.509462
0.509094
0.508502
0.509154
0.508757
0.508273
0.508232
0.507915
0.508193
0.508757
0.518847
0.519776
0.519452
0.51881
0.519328
0.518946
0.51859
0.518581
0.518127
0.518458
0.518946
0.529109
0.530139
0.529897
0.529213
0.529564
0.529208
0.529002
0.529023
0.528473
0.528822
0.529208
0.539517
0.540514
0.540354
0.539699
0.539969
0.539617
0.539472
0.539506
0.538994
0.539252
0.539617
0.549949
0.550895
0.550817
0.550186
0.550439
0.550049
0.550005
0.55003
0.549532
0.549717
0.550049
0.560504
0.561311
0.561278
0.560738
0.560936
0.560604
0.560568
0.560567
0.560177
0.56028
0.560604
0.571071
0.571764
0.571748
0.5713
0.57146
0.57117
0.571163
0.571129
0.570752
0.570813
0.57117
0.581714
0.582318
0.582307
0.581963
0.58202
0.581814
0.58182
0.581749
0.581429
0.581451
0.581814
0.592345
0.592832
0.59282
0.592589
0.592584
0.592444
0.592436
0.592327
0.592064
0.592069
0.592444
0.603033
0.603378
0.603422
0.603271
0.603214
0.603131
0.603132
0.602997
0.602776
0.602774
0.603131
0.61373
0.614029
0.614057
0.613961
0.613879
0.613827
0.613823
0.613686
0.613519
0.613519
0.613827
0.624456
0.624701
0.624751
0.624683
0.624599
0.624551
0.624554
0.624434
0.624301
0.624308
0.624551
0.635285
0.635477
0.635535
0.635491
0.635422
0.635374
0.635385
0.635285
0.635184
0.63519
0.635374
0.646146
0.646302
0.646362
0.646331
0.646279
0.646228
0.646256
0.646173
0.646103
0.646101
0.646228
0.657325
0.657474
0.657519
0.657526
0.657441
0.65739
0.65749
0.657417
0.657346
0.65736
0.65739
0.669468
0.669512
0.669545
0.669523
0.669561
0.669507
0.669447
0.66941
0.669408
0.66943
0.669507
0.67239
0.672455
0.672481
0.672483
0.6725
0.672439
0.672416
0.672381
0.672368
0.672403
0.672439
0.675191
0.67526
0.675291
0.675303
0.675309
0.675252
0.675232
0.6752
0.675191
0.675222
0.675252
0.677966
0.678043
0.678078
0.678098
0.678098
0.678039
0.678025
0.677996
0.67799
0.678021
0.678039
0.680734
0.680815
0.680854
0.68088
0.680878
0.680817
0.680809
0.680783
0.680778
0.680809
0.680817
0.683499
0.683583
0.683624
0.683652
0.68365
0.683589
0.683586
0.683564
0.683559
0.683592
0.683589
0.686263
0.686347
0.686387
0.686416
0.686415
0.686357
0.686357
0.686338
0.686336
0.686368
0.686357
0.689022
0.689108
0.689146
0.689174
0.689174
0.689118
0.689122
0.689108
0.689107
0.689139
0.689118
0.691781
0.691865
0.6919
0.691928
0.691929
0.691877
0.691886
0.691876
0.691876
0.691906
0.691877
0.694538
0.694619
0.694652
0.694679
0.694682
0.694635
0.694649
0.694641
0.69464
0.694669
0.694635
0.697292
0.697373
0.697402
0.697429
0.697433
0.697389
0.697406
0.697401
0.697402
0.69743
0.697389
0.700046
0.700125
0.700151
0.700178
0.700184
0.700143
0.700162
0.700159
0.70016
0.700188
0.700143
0.702799
0.702877
0.702901
0.702926
0.702934
0.702897
0.702918
0.702916
0.702917
0.702944
0.702897
0.705552
0.705629
0.705649
0.705674
0.705684
0.70565
0.705672
0.705672
0.705673
0.705701
0.70565
0.708305
0.708379
0.708397
0.708422
0.708434
0.708403
0.708426
0.708427
0.708428
0.708456
0.708403
0.711056
0.71113
0.711146
0.71117
0.711182
0.711154
0.711178
0.71118
0.711181
0.711209
0.711154
0.713806
0.71388
0.713894
0.713917
0.71393
0.713905
0.71393
0.713933
0.713934
0.713963
0.713905
0.716556
0.716629
0.716641
0.716664
0.716678
0.716655
0.71668
0.716684
0.716685
0.716714
0.716655
0.719305
0.719378
0.719389
0.719411
0.719426
0.719404
0.719429
0.719434
0.719435
0.719465
0.719404
0.722053
0.722126
0.722135
0.722157
0.722172
0.722153
0.722178
0.722183
0.722185
0.722215
0.722153
0.724801
0.724873
0.724882
0.724902
0.724918
0.7249
0.724926
0.724931
0.724933
0.724964
0.7249
0.727547
0.72762
0.727627
0.727647
0.727663
0.727647
0.727672
0.727677
0.72768
0.727712
0.727647
0.730293
0.730365
0.730371
0.730391
0.730408
0.730393
0.730418
0.730423
0.730427
0.730458
0.730393
0.733038
0.73311
0.733115
0.733134
0.733151
0.733138
0.733162
0.733168
0.733172
0.733204
0.733138
0.735781
0.735853
0.735857
0.735876
0.735893
0.735881
0.735906
0.735911
0.735915
0.735948
0.735881
0.738524
0.738595
0.738598
0.738617
0.738635
0.738624
0.738648
0.738654
0.738658
0.738691
0.738624
0.741265
0.741337
0.741339
0.741357
0.741375
0.741365
0.74139
0.741395
0.741399
0.741432
0.741365
0.744005
0.744076
0.744078
0.744096
0.744114
0.744106
0.74413
0.744136
0.74414
0.744174
0.744106
0.746744
0.746815
0.746816
0.746834
0.746852
0.746844
0.746869
0.746876
0.74688
0.746913
0.746844
0.749482
0.749553
0.749553
0.749571
0.749589
0.749582
0.749607
0.749613
0.749618
0.749652
0.749582
0.752218
0.75229
0.75229
0.752307
0.752325
0.752319
0.752344
0.75235
0.752355
0.752389
0.752319
0.754955
0.755027
0.755025
0.755043
0.755061
0.755055
0.75508
0.755086
0.755091
0.755125
0.755055
0.75769
0.757762
0.757761
0.757778
0.757796
0.757791
0.757815
0.757822
0.757826
0.757862
0.757791
0.760425
0.760498
0.760495
0.760512
0.760531
0.760526
0.76055
0.760557
0.760561
0.760597
0.760526
0.763159
0.763233
0.76323
0.763246
0.763265
0.76326
0.763284
0.763292
0.763295
0.763332
0.76326
0.765894
0.765967
0.765963
0.76598
0.765998
0.765995
0.766018
0.766026
0.76603
0.766067
0.765995
0.768627
0.768701
0.768697
0.768714
0.768732
0.768728
0.768752
0.76876
0.768764
0.768802
0.768728
0.771361
0.771436
0.77143
0.771447
0.771465
0.771462
0.771485
0.771493
0.771497
0.771536
0.771462
0.774094
0.774169
0.774163
0.77418
0.774198
0.774195
0.774218
0.774226
0.77423
0.774269
0.774195
0.776827
0.776903
0.776896
0.776913
0.776931
0.776928
0.776951
0.776959
0.776963
0.777003
0.776928
0.77956
0.779636
0.779629
0.779645
0.779663
0.779661
0.779684
0.779692
0.779696
0.779736
0.779661
0.782293
0.782369
0.782361
0.782377
0.782395
0.782394
0.782416
0.782424
0.782428
0.78247
0.782394
0.785025
0.785101
0.785093
0.785109
0.785127
0.785126
0.785148
0.785156
0.78516
0.785202
0.785126
0.787757
0.787834
0.787824
0.787841
0.787859
0.787858
0.78788
0.787888
0.787892
0.787935
0.787858
0.790488
0.790566
0.790555
0.790572
0.79059
0.79059
0.790611
0.790619
0.790624
0.790667
0.79059
0.79322
0.793297
0.793286
0.793303
0.793321
0.793321
0.793342
0.793351
0.793356
0.7934
0.793321
0.795951
0.796029
0.796017
0.796034
0.796052
0.796052
0.796073
0.796082
0.796087
0.796131
0.796052
0.798681
0.79876
0.798748
0.798764
0.798782
0.798782
0.798804
0.798812
0.798817
0.798862
0.798782
0.801411
0.801491
0.801478
0.801495
0.801512
0.801513
0.801534
0.801542
0.801548
0.801593
0.801513
0.804141
0.804222
0.804208
0.804224
0.804241
0.804243
0.804264
0.804272
0.804278
0.804324
0.804243
0.806871
0.806952
0.806937
0.806954
0.806971
0.806972
0.806993
0.807002
0.807008
0.807054
0.806972
0.8096
0.809682
0.809666
0.809683
0.8097
0.809702
0.809722
0.809731
0.809737
0.809783
0.809702
0.812329
0.812411
0.812395
0.812412
0.812428
0.81243
0.812451
0.81246
0.812467
0.812513
0.81243
0.815057
0.81514
0.815124
0.81514
0.815157
0.815159
0.81518
0.815188
0.815196
0.815242
0.815159
0.817785
0.817868
0.817852
0.817868
0.817885
0.817887
0.817908
0.817917
0.817924
0.817971
0.817887
0.820513
0.820596
0.820579
0.820596
0.820612
0.820615
0.820635
0.820644
0.820652
0.820699
0.820615
0.82324
0.823324
0.823307
0.823323
0.823339
0.823342
0.823363
0.823372
0.823379
0.823427
0.823342
0.825967
0.826051
0.826034
0.82605
0.826066
0.826069
0.82609
0.826099
0.826107
0.826154
0.826069
0.828694
0.828778
0.82876
0.828777
0.828793
0.828796
0.828816
0.828826
0.828833
0.828882
0.828796
0.83142
0.831505
0.831487
0.831503
0.831519
0.831522
0.831543
0.831552
0.83156
0.831609
0.831522
0.834146
0.834231
0.834213
0.834229
0.834245
0.834248
0.834269
0.834278
0.834286
0.834335
0.834248
0.836872
0.836957
0.836938
0.836955
0.83697
0.836974
0.836994
0.837003
0.837011
0.837061
0.836974
0.839598
0.839683
0.839664
0.839681
0.839696
0.839699
0.83972
0.839728
0.839736
0.839787
0.839699
0.842323
0.842409
0.842389
0.842406
0.842421
0.842425
0.842445
0.842454
0.84246
0.842513
0.842425
0.845049
0.845135
0.845114
0.845131
0.845146
0.84515
0.84517
0.845179
0.845185
0.845239
0.84515
0.847774
0.84786
0.847839
0.847856
0.847871
0.847875
0.847895
0.847904
0.84791
0.847965
0.847875
0.850498
0.850585
0.850564
0.850581
0.850596
0.8506
0.85062
0.85063
0.850636
0.850691
0.8506
0.853223
0.85331
0.853288
0.853306
0.85332
0.853325
0.853345
0.853355
0.853361
0.853416
0.853325
0.855948
0.856035
0.856013
0.856031
0.856045
0.85605
0.856069
0.856079
0.856086
0.856142
0.85605
0.858675
0.858761
0.858739
0.858757
0.858771
0.858776
0.858796
0.858805
0.858811
0.858868
0.858776
0.861401
0.861488
0.861465
0.861483
0.861497
0.861502
0.861522
0.861531
0.861536
0.861593
0.861502
0.864144
0.86423
0.864208
0.864226
0.86424
0.864245
0.864264
0.864274
0.864279
0.864335
0.864245
0.866914
0.866996
0.866976
0.866993
0.867006
0.867012
0.86703
0.867039
0.867046
0.867097
0.867012
0.869746
0.86982
0.869807
0.869821
0.869834
0.86984
0.869856
0.869865
0.869875
0.869916
0.86984
0.8728
0.87286
0.872855
0.872864
0.872875
0.872882
0.872894
0.872901
0.872918
0.872943
0.872882
0.876274
0.876298
0.876307
0.876312
0.876318
0.876323
0.876329
0.876336
0.876352
0.876354
0.876323
0.880504
0.880513
0.880518
0.880522
0.880524
0.880527
0.880529
0.880533
0.880539
0.880537
0.880527
0.885185
0.885187
0.88519
0.885191
0.885193
0.885193
0.885194
0.885196
0.885198
0.885198
0.885193
0.890065
0.890066
0.890067
0.890068
0.890068
0.890069
0.890069
0.890069
0.890071
0.89007
0.890069
0.895023
0.895023
0.895023
0.895024
0.895024
0.895024
0.895024
0.895024
0.895025
0.895025
0.895024
0.900008
0.900008
0.900008
0.900008
0.900008
0.900008
0.900008
0.900008
0.900009
0.900009
0.900008
0.905003
0.905003
0.905003
0.905003
0.905003
0.905003
0.905003
0.905003
0.905003
0.905003
0.905003
0.910001
0.910001
0.910001
0.910001
0.910001
0.910001
0.910001
0.910001
0.910001
0.910001
0.910001
0.915
0.915
0.915
0.915
0.915
0.915
0.915
0.915
0.915
0.915
0.915
0.92
0.92
0.92
0.92
0.92
0.92
0.92
0.92
0.92
0.92
0.92
0.925
0.925
0.925
0.925
0.925
0.925
0.925
0.925
0.925
0.925
0.925
0.93
0.93
0.93
0.93
0.93
0.93
0.93
0.93
0.93
0.93
0.93
0.935
0.935
0.935
0.935
0.935
0.935
0.935
0.935
0.935
0.935
0.935
0.94
0.94
0.94
0.94
0.94
0.94
0.94
0.94
0.94
0.94
0.94
0.945
0.945
0.945
0.945
0.945
0.945
0.945
0.945
0.945
0.945
0.945
0.95
0.95
0.95
0.95
0.95
0.95
0.95
0.95
0.95
0.95
0.95
0.955
0.955
0.955
0.955
0.955
0.955
0.955
0.955
0.955
0.955
0.955
0.96
0.96
0.96
0.96
0.96
0.96
0.96
0.96
0.96
0.96
0.96
0.965
0.965
0.965
0.965
0.965
0.965
0.965
0.965
0.965
0.965
0.965
0.97
0.97
0.97
0.97
0.97
0.97
0.97
0.97
0.97
0.97
0.97
0.975
0.975
0.975
0.975
0.975
0.975
0.975
0.975
0.975
0.975
0.975
0.98
0.98
0.98
0.98
0.98
0.98
0.98
0.98
0.98
0.98
0.98
0.985
0.985
0.985
0.985
0.985
0.985
0.985
0.985
0.985
0.985
0.985
0.99
0.99
0.99
0.99
0.99
0.99
0.99
0.99
0.99
0.99
0.99
0.995
0.995
0.995
0.995
0.995
0.995
0.995
0.995
0.995
0.995
0.995
1
1
1
1
1
1
1
1
1
1
1
0
0.02
0.04
0.06
0.08
0.1
0.12
0.14
0.16
0.18
0.2
4.04381e-012
0.02
0.04
0.06
0.08
0.1
0.12
0.14
0.16
0.18
0.2
9.5846e-012
0.02
0.04
0.06
0.08
0.1
0.12
0.14
0.16
0.18
0.2
1.45643e-011
0.02
0.04
0.06
0.08
0.1
0.12
0.14
0.16
0.18
0.2
1.89841e-011
0.02
0.04
0.06
0.08
0.1
0.12
0.14
0.16
0.18
0.2
2.52696e-011
0.02
0.04
0.06
0.08
0.1
0.12
0.14
0.16
0.18
0.2
2.61548e-011
0.02
0.04
0.06
0.08
0.1
0.12
0.14
0.16
0.18
0.2
1.95056e-011
0.02
0.04
0.06
0.08
0.1
0.12
0.14
0.16
0.18
0.2
1.65108e-011
0.02
0.04
0.06
0.08
0.1
0.12
0.14
0.16
0.18
0.2
1.44996e-011
0.02
0.04
0.06
0.08
0.1
0.12
0.14
0.16
0.18
0.2
9.25395e-012
0.02
0.04
0.06
0.08
0.1
0.12
0.14
0.16
0.18
0.2
1.59638e-012
0.02
0.04
0.06
0.08
0.1
0.12
0.14
0.16
0.18
0.2
-5.12078e-012
0.02
0.04
0.06
0.08
0.1
0.12
0.14
0.16
0.18
0.2
-9.30233e-012
0.02
0.04
0.06
0.08
0.1
0.12
0.14
0.16
0.18
0.2
-8.73567e-012
0.02
0.04
0.06
0.08
0.1
0.12
0.14
0.16
0.18
0.2
-4.98337e-012
0.02
0.04
0.06
0.08
0.1
0.12
0.14
0.16
0.18
0.2
-3.15775e-012
0.02
0.04
0.06
0.08
0.1
0.12
0.14
0.16
0.18
0.2
-2.81043e-012
0.02
0.04
0.06
0.08
0.1
0.12
0.14
0.16
0.18
0.2
-3.0392e-012
0.02
0.04
0.06
0.08
0.1
0.12
0.14
0.16
0.18
0.2
-4.1149e-012
0.02
0.04
0.06
0.08
0.1
0.12
0.14
0.16
0.18
0.2
-3.71729e-012
0.02
0.04
0.06
0.08
0.1
0.12
0.14
0.16
0.18
0.2
-1.28609e-013
0.02
0.04
0.06
0.08
0.1
0.12
0.14
0.16
0.18
0.2
7.16313e-012
0.02
0.04
0.06
0.08
0.1
0.12
0.14
0.16
0.18
0.2
2.21603e-011
0.02
0.04
0.06
0.08
0.1
0.12
0.14
0.16
0.18
0.2
4.7572e-011
0.02
0.04
0.06
0.08
0.1
0.12
0.14
0.16
0.18
0.2
7.13218e-011
0.02
0.04
0.06
0.08
0.1
0.12
0.14
0.16
0.18
0.2
1.18492e-010
0.02
0.04
0.06
0.08
0.1
0.12
0.14
0.16
0.18
0.2
1.27363e-010
0.02
0.04
0.06
0.08
0.1
0.12
0.14
0.16
0.18
0.2
9.09366e-012
0.02
0.04
0.06
0.08
0.1
0.12
0.14
0.16
0.18
0.2
-8.47971e-010
0.02
0.04
0.06
0.08
0.1
0.12
0.14
0.16
0.18
0.2
-2.14655e-009
0.02
0.04
0.06
0.08
0.1
0.12
0.14
0.16
0.18
0.2
-1.57723e-009
0.02
0.04
0.06
0.08
0.1
0.12
0.14
0.16
0.18
0.2
-1.10812e-008
0.02
0.04
0.06
0.08
0.1
0.12
0.14
0.16
0.18
0.2
-5.49251e-009
0.02
0.04
0.06
0.08
0.1
0.12
0.14
0.16
0.18
0.2
2.21744e-009
0.02
0.04
0.06
0.08
0.1
0.12
0.14
0.16
0.18
0.2
1.71284e-008
0.0200001
0.04
0.06
0.08
0.1
0.12
0.14
0.16
0.18
0.2
6.40222e-008
0.0200002
0.04
0.0599999
0.08
0.1
0.12
0.14
0.16
0.18
0.2
5.89975e-008
0.0200002
0.0400001
0.06
0.0799999
0.1
0.12
0.14
0.16
0.18
0.2
2.59334e-008
0.0200003
0.0400003
0.0600001
0.08
0.1
0.12
0.14
0.16
0.18
0.2
2.29234e-008
0.0200003
0.0400002
0.0600003
0.0800001
0.1
0.12
0.14
0.16
0.18
0.2
-2.44406e-008
0.0200003
0.0400001
0.0600005
0.0800002
0.1
0.12
0.14
0.16
0.18
0.2
-1.12937e-008
0.0200004
0.0400003
0.0600009
0.0800003
0.1
0.12
0.14
0.160001
0.18
0.2
-1.2882e-008
0.0200006
0.0400006
0.0600013
0.0800004
0.1
0.12
0.14
0.160001
0.18
0.2
3.70615e-008
0.0200008
0.0400012
0.0600017
0.0800004
0.1
0.12
0.14
0.160001
0.18
0.2
-5.54724e-008
0.0200012
0.0400019
0.0600023
0.0800003
0.1
0.12
0.14
0.160001
0.18
0.2
7.53958e-008
0.0200017
0.0400029
0.0600027
0.0800004
0.1
0.12
0.14
0.160001
0.180001
0.2
3.31595e-007
0.0200021
0.0400042
0.060003
0.0800003
0.1
0.12
0.14
0.160002
0.180001
0.2
6.12369e-007
0.0200026
0.0400058
0.0600033
0.0800002
0.100001
0.12
0.14
0.160004
0.180002
0.200001
8.95714e-007
0.0200034
0.0400078
0.0600035
0.0799999
0.100001
0.12
0.14
0.160003
0.180003
0.200001
1.15504e-006
0.0200042
0.0400099
0.0600035
0.0799995
0.100001
0.119999
0.14
0.160003
0.180003
0.200001
1.15815e-006
0.0200046
0.040011
0.0600022
0.0799983
0.100001
0.119999
0.14
0.160003
0.180004
0.200001
1.17464e-006
0.0200025
0.0400048
0.0599983
0.0799964
0.100001
0.119999
0.140001
0.160009
0.180007
0.200001
1.03087e-006
0.019999
0.0399982
0.0599945
0.0799946
0.100001
0.119999
0.140003
0.160015
0.18001
0.200001
1.00454e-006
0.0199992
0.0399986
0.0599928
0.0799934
0.100001
0.119998
0.140004
0.160015
0.180012
0.200001
1.91866e-006
0.0199986
0.0399956
0.0599924
0.079997
0.100002
0.119998
0.140004
0.160015
0.180012
0.200002
-1.1725e-006
0.0199956
0.0399912
0.0599934
0.080001
0.0999988
0.119997
0.140005
0.160015
0.180011
0.199999
-4.67756e-006
0.0199877
0.0399727
0.0599942
0.0800065
0.0999953
0.119995
0.140005
0.160014
0.180011
0.199995
-1.19286e-005
0.0199748
0.0399537
0.0599944
0.080013
0.099988
0.119991
0.140004
0.160013
0.180008
0.199988
-2.25604e-005
0.0199712
0.0399554
0.0599992
0.0800077
0.0999773
0.119987
0.140003
0.160011
0.180003
0.199977
-2.613e-005
0.0199708
0.0399572
0.0599969
0.0800037
0.0999737
0.119984
0.140002
0.160011
0.180001
0.199974
-2.91586e-005
0.0199706
0.0399574
0.0599928
0.0799987
0.0999707
0.119983
0.140003
0.160012
0.180001
0.199971
-3.23516e-005
0.0199692
0.0399561
0.0599877
0.0799933
0.0999675
0.119982
0.140004
0.160013
0.18
0.199967
-3.62515e-005
0.0199662
0.0399531
0.0599818
0.0799877
0.0999636
0.11998
0.140005
0.160014
0.18
0.199964
-4.10408e-005
0.0199619
0.039949
0.0599756
0.0799816
0.0999588
0.119977
0.140006
0.160016
0.179998
0.199959
-4.68898e-005
0.0199566
0.0399437
0.0599685
0.0799743
0.0999529
0.119974
0.140007
0.160017
0.179995
0.199953
-5.38298e-005
0.0199503
0.0399372
0.0599605
0.079966
0.099946
0.11997
0.140007
0.160018
0.179992
0.199946
-6.20962e-005
0.0199427
0.0399294
0.0599514
0.0799563
0.0999377
0.119965
0.140007
0.160018
0.179987
0.199938
-7.15032e-005
0.019934
0.0399202
0.0599412
0.0799454
0.0999283
0.11996
0.140007
0.160018
0.179982
0.199928
-8.19595e-005
0.0199244
0.0399095
0.0599296
0.0799328
0.0999178
0.119954
0.140006
0.160017
0.179974
0.199918
-9.38594e-005
0.0199139
0.0398977
0.0599164
0.0799183
0.0999059
0.119948
0.140004
0.160014
0.179965
0.199906
-0.000107703
0.019902
0.0398845
0.0599013
0.0799014
0.099892
0.119939
0.139997
0.160006
0.179952
0.199892
-0.000124147
0.0198883
0.0398699
0.0598838
0.0798815
0.0998756
0.119926
0.139982
0.159987
0.17993
0.199876
-0.000144189
0.0198732
0.0398547
0.0598642
0.0798585
0.0998555
0.119906
0.139949
0.159932
0.179892
0.199856
-0.000164409
0.0198556
0.0398387
0.0598421
0.0798324
0.0998353
0.119891
0.13993
0.159896
0.179816
0.199835
-0.000195558
0.0198344
0.0398169
0.0598159
0.0797996
0.099804
0.119876
0.139931
0.159919
0.179854
0.199804
-0.00025865
0.0197868
0.0397818
0.0597868
0.0797564
0.0997408
0.119806
0.139911
0.15992
0.179772
0.199741
-0.000319206
0.0197321
0.0397439
0.0597645
0.0797431
0.0996801
0.119705
0.139854
0.159931
0.179833
0.19968
-0.000312188
0.0197174
0.0397171
0.0597467
0.079742
0.099687
0.119646
0.139695
0.15983
0.179833
0.199687
-0.000365923
0.0196629
0.0396872
0.0597179
0.0796898
0.0996333
0.119582
0.139738
0.159823
0.179747
0.199633
-0.000432768
0.0196284
0.0396794
0.0597085
0.0796896
0.0995662
0.119497
0.139641
0.159682
0.179696
0.199566
-0.0003314
0.0196797
0.0397066
0.0597276
0.0797406
0.0996677
0.119515
0.139363
0.159402
0.179558
0.199668
-0.000290881
0.0197198
0.0397253
0.0597347
0.0797494
0.0997084
0.119563
0.139348
0.159316
0.179569
0.199708
-0.000290064
0.0197305
0.0397282
0.0597284
0.0797337
0.0997093
0.119585
0.139355
0.159303
0.17953
0.199709
-0.000284059
0.0197456
0.0397331
0.0597232
0.0797215
0.0997154
0.119626
0.139413
0.159341
0.179537
0.199715
-0.000234702
0.0198018
0.0397579
0.0597266
0.0797309
0.0997649
0.11974
0.139577
0.159513
0.179635
0.199765
-0.000109615
0.0199347
0.0398112
0.059713
0.079748
0.0998901
0.119947
0.13981
0.159765
0.179829
0.19989
1.98404e-005
0.0200584
0.0398988
0.0597157
0.079767
0.10002
0.120101
0.140012
0.159937
0.179942
0.20002
9.85702e-005
0.0201773
0.040059
0.0598965
0.0799378
0.100099
0.120143
0.140168
0.16011
0.180097
0.200099
0.000244041
0.0202341
0.0402216
0.0601235
0.0801016
0.100244
0.12033
0.140245
0.160201
0.180134
0.200244
0.000231775
0.0202935
0.0404065
0.0603697
0.080304
0.100232
0.120236
0.140266
0.160198
0.180129
0.200232
0.00034765
0.0203221
0.0403032
0.060271
0.0803198
0.100348
0.120329
0.140247
0.160234
0.180267
0.200348
0.000414366
0.0203279
0.0403228
0.0602785
0.0803041
0.100415
0.120358
0.140458
0.160429
0.180412
0.200415
0.00039595
0.0203541
0.0404459
0.0604371
0.0804057
0.100397
0.120349
0.140342
0.160357
0.180348
0.200397
0.000324732
0.0202141
0.0403646
0.0603563
0.0803355
0.100325
0.120277
0.140275
0.160292
0.180286
0.200325
0.000234476
0.0201483
0.0401864
0.0601935
0.0801978
0.100235
0.120247
0.140259
0.160257
0.180224
0.200235
0.000200695
0.0202127
0.0402052
0.060194
0.0801765
0.100201
0.120234
0.140247
0.160234
0.180191
0.200201
0.000133549
0.0200949
0.0401159
0.0601242
0.0801259
0.100134
0.120163
0.14019
0.160169
0.180118
0.200134
8.22293e-005
0.0200363
0.0400388
0.0600567
0.0800663
0.100083
0.120112
0.140129
0.160111
0.180073
0.200083
5.50837e-005
0.0199845
0.0399478
0.059969
0.0800021
0.100055
0.120079
0.140082
0.160053
0.180031
0.200055
9.60677e-005
0.0199081
0.0398673
0.0598694
0.0798924
0.100096
0.120172
0.139977
0.160082
0.180076
0.200096
0.000133177
0.0198973
0.0398734
0.0598802
0.0798911
0.100133
0.120196
0.139884
0.160088
0.180067
0.200133
1.55056e-005
0.0199821
0.039913
0.0598895
0.0799353
0.100016
0.120004
0.139996
0.159945
0.179976
0.200016
-2.81541e-005
0.0199439
0.0399218
0.0598968
0.0799224
0.0999721
0.119992
0.139972
0.159952
0.179952
0.199972
-4.30319e-005
0.019931
0.0399036
0.0598987
0.0799187
0.0999572
0.119963
0.13996
0.159942
0.179936
0.199957
-5.99649e-005
0.0199099
0.0398811
0.0598853
0.0799122
0.0999403
0.119947
0.139943
0.159926
0.179912
0.19994
-6.9873e-005
0.0198917
0.039868
0.0598718
0.0799035
0.0999304
0.119935
0.139928
0.159908
0.179905
0.19993
-7.83259e-005
0.0198817
0.0398621
0.0598682
0.079895
0.0999219
0.119921
0.139914
0.159896
0.179904
0.199922
-9.60342e-005
0.0198686
0.0398514
0.0598662
0.0798876
0.0999041
0.119905
0.139895
0.159887
0.179883
0.199904
-0.000112543
0.0198497
0.0398375
0.0598567
0.0798789
0.0998876
0.119893
0.13989
0.159882
0.17988
0.199888
-0.000118135
0.0198462
0.0398355
0.0598494
0.079874
0.099882
0.119883
0.139882
0.159876
0.179878
0.199882
-0.000120147
0.0198495
0.0398391
0.0598464
0.0798714
0.0998799
0.119876
0.139871
0.159872
0.17987
0.19988
-0.00012461
0.0198484
0.0398389
0.059844
0.079864
0.0998754
0.11987
0.139868
0.159869
0.179869
0.199875
-0.000131981
0.0198497
0.0398397
0.0598437
0.0798575
0.099868
0.119867
0.139862
0.159867
0.179862
0.199868
-0.000144982
0.0198383
0.0398331
0.0598385
0.0798504
0.099855
0.119863
0.139854
0.159859
0.179851
0.199855
-0.000150613
0.0198311
0.0398301
0.0598361
0.0798468
0.0998494
0.119857
0.139852
0.159853
0.17985
0.199849
-0.000150368
0.0198364
0.0398328
0.0598377
0.0798477
0.0998496
0.119847
0.139848
0.159846
0.179845
0.19985
-0.000150623
0.0198385
0.0398352
0.0598391
0.079848
0.0998493
0.119844
0.139843
0.159841
0.17984
0.199849
-0.000149209
0.0198418
0.0398388
0.059842
0.07985
0.0998507
0.119846
0.139844
0.159841
0.179839
0.199851
-0.000146631
0.0198454
0.0398428
0.0598458
0.0798537
0.0998533
0.11985
0.139848
0.159842
0.179849
0.199853
-0.000145193
0.0198478
0.0398456
0.0598484
0.0798559
0.0998547
0.119851
0.139851
0.159845
0.179857
0.199855
-0.000142613
0.0198513
0.0398493
0.059852
0.0798585
0.0998573
0.119854
0.139855
0.15985
0.17986
0.199857
-0.000140723
0.0198541
0.0398524
0.0598545
0.0798606
0.0998592
0.119856
0.139857
0.159853
0.179862
0.199859
-0.000138374
0.0198568
0.039856
0.0598572
0.0798613
0.0998615
0.119858
0.139858
0.159854
0.179865
0.199862
-0.000137549
0.0198595
0.0398587
0.0598584
0.0798615
0.0998624
0.119859
0.13986
0.159856
0.179866
0.199862
-0.00013634
0.0198615
0.0398606
0.0598594
0.0798606
0.0998636
0.119861
0.139862
0.159858
0.179866
0.199864
-0.000137282
0.0198599
0.0398599
0.0598601
0.0798601
0.0998626
0.119862
0.139861
0.159857
0.179864
0.199863
-0.000142976
0.0198543
0.0398567
0.0598586
0.079861
0.0998569
0.119863
0.139858
0.15985
0.179863
0.199857
-0.000144125
0.0198537
0.0398565
0.0598584
0.0798613
0.0998558
0.11986
0.139858
0.159848
0.179863
0.199856
-0.000140583
0.0198589
0.0398606
0.0598611
0.0798634
0.0998593
0.119858
0.139858
0.15985
0.179865
0.199859
-0.000136527
0.0198633
0.0398643
0.0598641
0.0798662
0.0998634
0.11986
0.13986
0.159855
0.179867
0.199863
-0.000134322
0.0198653
0.0398663
0.0598665
0.0798685
0.0998656
0.119863
0.139863
0.159859
0.179868
0.199866
-0.000132157
0.0198675