VARIABLES = X, Y, ux
ZONE N = 1111, E = 1000
ZONETYPE = FEQUADRILATERAL
DATAPACKING = BLOCK
varlocation=([3]=cellcentered)
0
0
0
0
0
0
0
0
0
0
0
0.01
0.01
0.01
0.01
0.01
0.01
0.01
0.01
0.01
0.01
0.01
0.02
0.02
0.02
0.02
0.02
0.02
0.02
0.02
0.02
0.02
0.02
0.03
0.03
0.03
0.03
0.03
0.03
0.03
0.03
0.03
0.03
0.03
0.04
0.04
0.04
0.04
0.04
0.04
0.04
0.04
0.04
0.04
0.04
0.0500001
0.0500001
0.0500001
0.0500001
0.0500001
0.0500001
0.0500001
0.0500001
0.0500001
0.0500001
0.0500001
0.0600002
0.0600002
0.0600002
0.0600002
0.0600002
0.0600002
0.0600002
0.0600002
0.0600002
0.0600002
0.0600002
0.0700004
0.0700004
0.0700004
0.0700004
0.0700004
0.0700004
0.0700004
0.0700004
0.0700004
0.0700004
0.0700004
0.0800007
0.0800007
0.0800008
0.0800008
0.0800008
0.0800008
0.0800008
0.0800008
0.0800008
0.0800008
0.0800008
0.0900014
0.0900014
0.0900014
0.0900014
0.0900014
0.0900014
0.0900015
0.0900015
0.0900015
0.0900015
0.0900014
0.100003
0.100003
0.100003
0.100003
0.100003
0.100003
0.100003
0.100003
0.100003
0.100003
0.100003
0.110005
0.110005
0.110005
0.110005
0.110005
0.110005
0.110005
0.110005
0.110005
0.110005
0.110005
0.120009
0.120009
0.120009
0.120009
0.120009
0.120009
0.120009
0.120009
0.120009
0.120009
0.120009
0.130016
0.130016
0.130016
0.130016
0.130016
0.130016
0.130016
0.130016
0.130016
0.130016
0.130016
0.140027
0.140028
0.140028
0.140028
0.140028
0.140028
0.140028
0.140028
0.140029
0.140029
0.140028
0.150048
0.150048
0.150048
0.150048
0.150049
0.150049
0.150049
0.150049
0.15005
0.15005
0.150049
0.160082
0.160084
0.160082
0.160083
0.160083
0.160083
0.160084
0.160085
0.160085
0.160085
0.160083
0.170138
0.170142
0.170139
0.170139
0.17014
0.17014
0.170143
0.170143
0.170144
0.170144
0.17014
0.180226
0.180234
0.180227
0.18023
0.180233
0.18023
0.180237
0.180234
0.180237
0.180236
0.18023
0.190361
0.190377
0.190363
0.19037
0.190377
0.190367
0.190382
0.190373
0.19038
0.190372
0.190367
0.200557
0.200582
0.200563
0.200577
0.20059
0.200565
0.200598
0.200574
0.200588
0.200571
0.200565
0.210839
0.210879
0.210846
0.210871
0.21089
0.21085
0.210897
0.210862
0.210879
0.210849
0.21085
0.221228
0.221269
0.221243
0.221274
0.221305
0.221243
0.221306
0.221259
0.221276
0.221232
0.221243
0.23176
0.231783
0.231776
0.231811
0.231852
0.231779
0.231838
0.231797
0.231801
0.231745
0.231779
0.242431
0.242448
0.242476
0.24251
0.242564
0.242455
0.24253
0.2425
0.242478
0.242452
0.242455
0.253302
0.253289
0.253366
0.253397
0.253464
0.253332
0.25342
0.253398
0.253337
0.25328
0.253332
0.264398
0.264353
0.264466
0.264497
0.26458
0.264435
0.264517
0.264514
0.264398
0.26437
0.264435
0.275745
0.275661
0.275809
0.27584
0.275938
0.275788
0.275848
0.275879
0.275684
0.275708
0.275788
0.287367
0.287255
0.287402
0.287454
0.287567
0.287417
0.28744
0.287518
0.287246
0.287246
0.287417
0.299283
0.299134
0.299307
0.299372
0.299496
0.299341
0.299317
0.299445
0.29917
0.29914
0.299341
0.311439
0.311365
0.311544
0.311628
0.311761
0.311506
0.311532
0.311702
0.311394
0.311384
0.311506
0.323947
0.3239
0.324174
0.324251
0.324384
0.324022
0.324182
0.32433
0.323954
0.324004
0.324022
0.336854
0.336829
0.337261
0.337263
0.337398
0.336937
0.337231
0.33736
0.336916
0.337021
0.336937
0.350199
0.350324
0.350844
0.350696
0.350841
0.350291
0.350721
0.350862
0.350319
0.350465
0.350291
0.364022
0.364418
0.364873
0.364604
0.364754
0.364124
0.364694
0.364849
0.364211
0.364238
0.364124
0.378365
0.379043
0.379395
0.379043
0.379191
0.378477
0.379182
0.379376
0.378649
0.378493
0.378477
0.393257
0.394258
0.39432
0.394124
0.394183
0.393379
0.394223
0.394474
0.393777
0.393294
0.393379
0.40878
0.410096
0.409875
0.409997
0.40957
0.408912
0.40985
0.4102
0.40956
0.408708
0.408912
0.424898
0.426553
0.426125
0.426339
0.425728
0.425041
0.425974
0.426597
0.42604
0.424868
0.425041
0.44196
0.443343
0.443124
0.443377
0.442817
0.442113
0.442757
0.443499
0.443222
0.441876
0.442113
0.45974
0.460798
0.460824
0.461012
0.460596
0.459904
0.460351
0.461172
0.460723
0.459795
0.459904
0.478622
0.479244
0.479231
0.479435
0.479177
0.478795
0.478664
0.479617
0.479241
0.478778
0.478795
0.497972
0.498433
0.498453
0.49831
0.498152
0.498153
0.49791
0.49872
0.498239
0.498144
0.498153
0.518014
0.518314
0.518486
0.518207
0.518066
0.518199
0.51812
0.51861
0.518188
0.518164
0.518199
0.538479
0.538663
0.53894
0.538676
0.538496
0.538665
0.538676
0.538982
0.538693
0.538603
0.538665
0.559421
0.559542
0.559807
0.559704
0.559519
0.559604
0.559725
0.559901
0.559654
0.559567
0.559604
0.580728
0.580795
0.580979
0.580968
0.580861
0.580903
0.581036
0.581119
0.580931
0.58088
0.580903
0.602416
0.602442
0.602535
0.602557
0.602535
0.602574
0.602647
0.602685
0.602587
0.602567
0.602574
0.624228
0.624252
0.624271
0.624316
0.624329
0.624362
0.624412
0.624429
0.624384
0.624374
0.624362
0.646711
0.646782
0.646691
0.646722
0.646856
0.646803
0.646835
0.646917
0.646827
0.646834
0.646803
0.671144
0.671066
0.671057
0.671047
0.671048
0.671174
0.671223
0.6711
0.671066
0.671084
0.671174
0.677037
0.677029
0.676985
0.676933
0.676986
0.67709
0.677115
0.677044
0.676969
0.676995
0.67709
0.682672
0.682689
0.682627
0.682582
0.682637
0.682748
0.682747
0.682688
0.682613
0.682637
0.682748
0.688235
0.688285
0.688217
0.688178
0.688229
0.688335
0.688327
0.688272
0.6882
0.688224
0.688335
0.693764
0.693852
0.693781
0.693752
0.693797
0.693887
0.693878
0.693829
0.693767
0.693792
0.693887
0.699275
0.699399
0.699331
0.699308
0.699343
0.699421
0.69941
0.699372
0.699318
0.699337
0.699421
0.704778
0.70493
0.70487
0.704853
0.704878
0.704946
0.704933
0.704898
0.704852
0.704868
0.704946
0.71028
0.710454
0.710402
0.710388
0.710405
0.710462
0.710448
0.710421
0.710383
0.710394
0.710462
0.715786
0.715976
0.715927
0.715917
0.715928
0.715976
0.715961
0.715935
0.715903
0.715912
0.715976
0.721295
0.721497
0.721446
0.72144
0.721445
0.721487
0.721471
0.721447
0.721419
0.721428
0.721487
0.726803
0.727012
0.726961
0.726955
0.726959
0.726996
0.72698
0.726956
0.726932
0.72694
0.726996
0.732304
0.732524
0.732469
0.732466
0.732466
0.732499
0.732485
0.732463
0.732444
0.732448
0.732499
0.737803
0.738031
0.737973
0.73797
0.737969
0.737999
0.737986
0.737966
0.73795
0.737952
0.737999
0.7433
0.743535
0.743474
0.743472
0.74347
0.743496
0.743484
0.743468
0.743455
0.743454
0.743496
0.748792
0.749034
0.74897
0.748968
0.748965
0.748989
0.748978
0.748965
0.748955
0.748953
0.748989
0.754281
0.754529
0.754463
0.754462
0.754457
0.754478
0.75447
0.75446
0.754452
0.754448
0.754478
0.759766
0.76002
0.759952
0.759952
0.759946
0.759964
0.759957
0.759951
0.759943
0.759938
0.759964
0.765249
0.765507
0.765438
0.765438
0.765433
0.765447
0.76544
0.765437
0.76543
0.765426
0.765447
0.770729
0.77099
0.770919
0.770921
0.770917
0.770928
0.770921
0.770918
0.770913
0.77091
0.770928
0.776207
0.776471
0.776397
0.776401
0.776398
0.776406
0.776399
0.776397
0.776393
0.77639
0.776406
0.781681
0.781947
0.781873
0.781878
0.781876
0.781881
0.781873
0.781872
0.781865
0.781863
0.781881
0.787153
0.787422
0.787344
0.787351
0.787349
0.787354
0.787346
0.787344
0.787335
0.787333
0.787354
0.792621
0.792895
0.792813
0.792821
0.792817
0.792822
0.792816
0.792812
0.7928
0.7928
0.792822
0.798086
0.798365
0.798279
0.798287
0.798282
0.798288
0.798283
0.798278
0.798263
0.798261
0.798288
0.803547
0.803831
0.803742
0.803749
0.803743
0.803749
0.803745
0.80374
0.803725
0.803723
0.803749
0.809006
0.809293
0.809202
0.809207
0.8092
0.809208
0.809202
0.809198
0.809185
0.809181
0.809208
0.814459
0.814752
0.814659
0.814663
0.814654
0.814662
0.814656
0.814653
0.814642
0.814638
0.814662
0.81991
0.820207
0.820114
0.820117
0.820106
0.820113
0.820107
0.820106
0.820096
0.820092
0.820113
0.825358
0.825659
0.825566
0.825568
0.825557
0.825561
0.825555
0.825556
0.825547
0.825545
0.825561
0.830806
0.831109
0.831014
0.831016
0.831005
0.831009
0.831003
0.831005
0.830996
0.830995
0.831009
0.836252
0.836556
0.836459
0.836462
0.83645
0.836456
0.836449
0.83645
0.836441
0.836442
0.836456
0.841695
0.842001
0.8419
0.841904
0.841894
0.841899
0.841893
0.841893
0.841882
0.841885
0.841899
0.847138
0.847446
0.847341
0.847348
0.847337
0.847342
0.847336
0.847335
0.847323
0.847328
0.847342
0.852581
0.852889
0.85278
0.852787
0.852778
0.852783
0.852775
0.852777
0.852762
0.852765
0.852783
0.858043
0.858354
0.858246
0.858253
0.858243
0.858246
0.858241
0.858248
0.858229
0.85823
0.858246
0.863569
0.86387
0.863769
0.863774
0.863763
0.863767
0.863767
0.863777
0.863755
0.863752
0.863767
0.86922
0.86949
0.869407
0.86941
0.8694
0.869408
0.869408
0.86942
0.869399
0.869393
0.869408
0.875335
0.87555
0.875502
0.875496
0.875487
0.875499
0.875498
0.87551
0.8755
0.875493
0.875499
0.882372
0.882452
0.882472
0.882465
0.882462
0.882466
0.882479
0.88247
0.882478
0.882482
0.882466
0.890923
0.890946
0.890959
0.890962
0.890962
0.890965
0.890975
0.890981
0.89098
0.890978
0.890965
0.900333
0.900339
0.900344
0.900346
0.900348
0.900349
0.900352
0.900355
0.900357
0.900354
0.900349
0.910116
0.910118
0.910119
0.91012
0.910121
0.910122
0.910123
0.910124
0.910124
0.910124
0.910122
0.92004
0.92004
0.920041
0.920041
0.920042
0.920042
0.920042
0.920042
0.920042
0.920043
0.920042
0.930014
0.930014
0.930014
0.930014
0.930014
0.930014
0.930014
0.930014
0.930014
0.930015
0.930014
0.940005
0.940005
0.940005
0.940005
0.940005
0.940005
0.940005
0.940005
0.940005
0.940005
0.940005
0.950002
0.950002
0.950002
0.950002
0.950002
0.950002
0.950002
0.950002
0.950002
0.950002
0.950002
0.960001
0.960001
0.960001
0.960001
0.960001
0.960001
0.960001
0.960001
0.960001
0.960001
0.960001
0.97
0.97
0.97
0.97
0.97
0.97
0.97
0.97
0.97
0.97
0.97
0.98
0.98
0.98
0.98
0.98
0.98
0.98
0.98
0.98
0.98
0.98
0.99
0.99
0.99
0.99
0.99
0.99
0.99
0.99
0.99
0.99
0.99
1
1
1
1
1
1
1
1
1
1
1
0
0.02
0.04
0.06
0.08
0.1
0.12
0.14
0.16
0.18
0.2
2.03107e-011
0.02
0.04
0.06
0.08
0.1
0.12
0.14
0.16
0.18
0.2
4.31435e-011
0.02
0.04
0.06
0.08
0.1
0.12
0.14
0.16
0.18
0.2
8.81315e-011
0.02
0.04
0.06
0.08
0.1
0.12
0.14
0.16
0.18
0.2
1.92031e-010
0.02
0.04
0.06
0.08
0.1
0.12
0.14
0.16
0.18
0.2
4.41515e-010
0.02
0.04
0.06
0.08
0.1
0.12
0.14
0.16
0.18
0.2
8.06179e-010
0.02
0.04
0.06
0.08
0.1
0.12
0.14
0.16
0.18
0.2
1.49703e-009
0.02
0.04
0.06
0.08
0.1
0.12
0.14
0.16
0.18
0.2
2.92212e-009
0.02
0.04
0.06
0.08
0.1
0.12
0.14
0.16
0.18
0.2
5.72484e-009
0.02
0.04
0.06
0.08
0.1
0.12
0.14
0.16
0.18
0.2
1.15905e-008
0.02
0.04
0.06
0.08
0.1
0.12
0.14
0.16
0.18
0.2
2.15414e-008
0.02
0.04
0.06
0.08
0.1
0.12
0.14
0.16
0.18
0.2
4.40028e-008
0.02
0.04
0.06
0.08
0.1
0.12
0.14
0.16
0.18
0.2
7.9405e-008
0.0200001
0.0400001
0.0600001
0.0800001
0.1
0.12
0.14
0.16
0.18
0.2
1.40978e-007
0.0200001
0.0400001
0.0600001
0.0800001
0.1
0.12
0.14
0.16
0.18
0.2
2.96778e-007
0.0200002
0.0400001
0.0600002
0.0800002
0.1
0.12
0.14
0.16
0.18
0.2
6.01499e-007
0.0200004
0.0400001
0.0600003
0.0800005
0.100001
0.120001
0.14
0.16
0.18
0.200001
1.0914e-006
0.0200006
0.0400002
0.0600006
0.0800008
0.100001
0.120001
0.140001
0.160001
0.18
0.200001
1.67383e-006
0.020001
0.0400005
0.0600015
0.0800011
0.100002
0.120002
0.140001
0.16
0.18
0.200002
2.4168e-006
0.0200021
0.0400012
0.0600024
0.0800012
0.100002
0.120002
0.140001
0.160001
0.18
0.200002
2.85769e-006
0.0200022
0.0400015
0.0600047
0.0800014
0.100003
0.120003
0.14
0.159999
0.179999
0.200003
3.10175e-006
0.0200038
0.0400042
0.0600077
0.0800015
0.100003
0.120002
0.139998
0.159998
0.179998
0.200003
1.67452e-006
0.0200045
0.0400078
0.0600112
0.0800024
0.100002
0.120001
0.139997
0.159995
0.179998
0.200002
7.37517e-007
0.0200104
0.0400152
0.0600144
0.080001
0.100001
0.120002
0.139995
0.159996
0.179996
0.200001
-8.58483e-007
0.020016
0.0400236
0.0600177
0.0800004
0.0999991
0.120001
0.139985
0.159982
0.179991
0.199999
-2.90499e-006
0.0200173
0.0400274
0.0600213
0.080004
0.099997
0.119994
0.139975
0.159969
0.179987
0.199997
-7.30267e-006
0.0200149
0.0400303
0.0600238
0.0800075
0.0999926
0.119986
0.139967
0.159973
0.179993
0.199993
-1.18183e-005
0.0200145
0.0400322
0.0600277
0.0800117
0.099988
0.119979
0.139952
0.159944
0.179986
0.199988
-1.10305e-005
0.0200173
0.0400394
0.0600311
0.0800148
0.0999888
0.119986
0.13997
0.159936
0.179971
0.199989
-4.88126e-006
0.0200516
0.0400562
0.0600307
0.0799993
0.099995
0.12002
0.140005
0.159967
0.179964
0.199995
1.22133e-005
0.0200861
0.0400765
0.0600297
0.0799872
0.100012
0.120051
0.14
0.159978
0.179963
0.200012
2.73534e-005
0.0200991
0.0400754
0.0600148
0.0799882
0.100027
0.120043
0.139991
0.159987
0.17999
0.200027
1.00334e-005
0.0200664
0.0400169
0.0599679
0.0799678
0.10001
0.120026
0.139976
0.159979
0.179976
0.20001
-1.06918e-005
0.0200311
0.0399339
0.0599217
0.0799446
0.0999891
0.119995
0.139923
0.159896
0.17994
0.199989
-1.30284e-005
0.0200078
0.0399125
0.0599163
0.0799441
0.0999867
0.119987
0.139887
0.15981
0.179854
0.199987
1.89038e-005
0.0200196
0.0399661
0.0599814
0.0799768
0.100019
0.120039
0.139955
0.159835
0.17991
0.200019
8.81918e-005
0.020045
0.0400063
0.0600102
0.0799862
0.100088
0.120122
0.140061
0.15992
0.179939
0.200088
0.000120201
0.0200665
0.0399951
0.0599177
0.0799072
0.10012
0.120187
0.140165
0.15999
0.179969
0.20012
-6.60103e-005
0.019992
0.0399935
0.0599611
0.0799755
0.099934
0.120173
0.140214
0.160076
0.179949
0.199934
-9.69459e-005
0.0199582
0.0401632
0.0601353
0.0800497
0.099903
0.119865
0.140141
0.160134
0.180017
0.199903
-4.63526e-005
0.0200477
0.0400639
0.0601518
0.0801459
0.0999539
0.120039
0.140015
0.160253
0.180263
0.199954
8.25856e-005
0.0199318
0.0399594
0.0600825
0.0802151
0.100083
0.119979
0.140313
0.160419
0.180336
0.200083
0.000292678
0.0201008
0.039963
0.060038
0.0802543
0.100293
0.120189
0.139966
0.160157
0.18026
0.200293
0.000178946
0.0202575
0.0401917
0.0601764
0.0801547
0.10018
0.120081
0.140047
0.1601
0.18017
0.20018
6.00577e-005
0.0200692
0.0400977
0.0600882
0.0800678
0.10006
0.120021
0.140047
0.160073
0.180056
0.20006
4.66573e-005
0.020055
0.0401133
0.0601176
0.0800489
0.100047
0.120032
0.139952
0.160014
0.180036
0.200047
9.03699e-007
0.0199668
0.0399979
0.0600599
0.080051
0.100001
0.119985
0.140042
0.160071
0.18004
0.200001
1.2188e-005
0.0199808
0.0399992
0.0600365
0.0800388
0.100012
0.120009
0.140044
0.160064
0.18004
0.200012
2.31416e-005
0.0199886
0.0400064
0.0600319
0.0800179
0.100023
0.120021
0.140054
0.160041
0.180014
0.200023
-0.000164939
0.0199582
0.0398729
0.0600963
0.0800828
0.0998333
0.120176
0.140042
0.16002
0.179882
0.199833
-0.000241523
0.0200034
0.039843
0.0600776
0.0800987
0.0997581
0.120394
0.140076
0.160025
0.179831
0.199758
2.92719e-006
0.0200669
0.0400749
0.0600466
0.0799626
0.100003
0.120043
0.140121
0.160048
0.179984
0.200003
-1.58287e-005
0.0200489
0.0400566
0.0600301
0.07998
0.0999842
0.12003
0.14006
0.160051
0.17999
0.199984
-8.90198e-006
0.0200582
0.0400529
0.0600219
0.07998
0.099991
0.120018
0.140048
0.160025
0.179994
0.199991
-1.13598e-005
0.0200723
0.0400649
0.0600191
0.0799875
0.0999885
0.120011
0.140033
0.16001
0.180002
0.199988
-1.52052e-005
0.0200603
0.0400577
0.0600227
0.0799876
0.0999847
0.12001
0.140016
0.160015
0.179991
0.199985
-1.52108e-005
0.0200365
0.0400434
0.0600166
0.0799886
0.0999848
0.120006
0.140002
0.160011
0.179973
0.199985
-1.0121e-005
0.0200294
0.0400348
0.0600103
0.0799898
0.0999898
0.120001
0.139999
0.160003
0.179979
0.19999
4.37966e-006
0.0200402
0.0400351
0.0600172
0.0799989
0.100004
0.120016
0.140017
0.16001
0.179996
0.200004
7.18787e-006
0.0200295
0.0400222
0.0600114
0.0799964
0.100007
0.120022
0.140024
0.160009
0.180001
0.200007
1.05984e-005
0.0200185
0.0400147
0.060004
0.080002
0.100011
0.120029
0.140032
0.160009
0.180012
0.200011
9.30413e-006
0.0200146
0.0400113
0.0599992
0.0800022
0.100009
0.120031
0.140029
0.160009
0.180008
0.200009
3.92738e-006
0.0200049
0.040002
0.0599968
0.0799881
0.100004
0.120023
0.140022
0.160008
0.18
0.200004
-4.36403e-006
0.0199979
0.0399948
0.0599936
0.0799796
0.0999958
0.12001
0.140013
0.160005
0.179993
0.199996
-9.74371e-006
0.0199975
0.039999
0.0599947
0.0799865
0.0999902
0.120003
0.140008
0.160001
0.17999
0.19999
-1.27803e-005
0.0199961
0.0400006
0.0599949
0.079988
0.0999873
0.119992
0.14
0.159997
0.179994
0.199987
-1.19384e-005
0.0199977
0.0400037
0.0599981
0.0799899
0.0999881
0.11999
0.139992
0.16
0.179989
0.199988
-9.68993e-006
0.0199995
0.0400064
0.0600003
0.0799929
0.0999904
0.119992
0.139988
0.159995
0.179983
0.19999
-6.15805e-006
0.0200019
0.0400108
0.0600075
0.0799995
0.0999939
0.119993
0.139988
0.159993
0.179989
0.199994
-1.64811e-007
0.0200081
0.0400152
0.0600168
0.080009
0.0999999
0.119997
0.139991
0.159996
0.179993
0.2
1.08178e-005
0.0200146
0.0400175
0.0600192
0.0800165
0.100011
0.120005
0.139998
0.159998
0.180007
0.200011
2.1956e-005
0.0200233
0.040023
0.0600173
0.0800227
0.100022
0.120014
0.140006
0.160004
0.180014
0.200022
2.74749e-005
0.020028
0.0400261
0.0600157
0.0800263
0.100027
0.12002
0.140013
0.160011
0.180016
0.200027
2.4839e-005
0.0200241
0.0400219
0.0600107
0.0800189
0.100025
0.120017
0.140019
0.160019
0.180017
0.200025
1.76115e-005
0.0200207
0.0400201
0.0600094
0.0800074
0.100018
0.120015
0.140021
0.16002
0.180013
0.200018
9.97102e-006
0.020016
0.040017
0.060009
0.0800028
0.10001
0.120013
0.140022
0.160016
0.180009
0.20001
2.85145e-006
0.0200123
0.0400142
0.0600057
0.080001
0.100003
0.120008
0.140018
0.160008
0.180003
0.200003
-1.67073e-006
0.0200099
0.0400142
0.0600057
0.0799999
0.0999984
0.120003
0.140011
0.160004
0.180001
0.199998
-5.01127e-006
0.0200022
0.0400085
0.0600032
0.0799971
0.099995
0.119997
0.140005
0.160002
0.179998
0.199995
-6.32593e-006
0.0199967
0.0400053
0.0600026
0.0799973
0.0999937
0.119989
0.139991
0.159994
0.17999
0.199994
-7.97256e-006
0.0199907
0.0400018
0.0600012
0.0799967
0.0999921
0.119986
0.139984
0.159991
0.17999
0.199992
-4.93655e-006
0.0199905
0.040004
0.060003
0.079997
0.0999951
0.119989
0.139984
0.159982
0.179984
0.199995
9.13469e-007
0.0199865
0.0400025
0.0600005
0.0800021
0.100001
0.119994
0.139988
0.159988
0.179988
0.200001
2.30618e-006
0.0199813
0.040001
0.0599953
0.0799913
0.100002
0.120003
0.139997
0.159992
0.179987
0.200002
-3.85313e-006
0.0199764
0.040006
0.0599949
0.0799822
0.099996
0.120002
0.140004
0.159998
0.179987
0.199996
-1.12654e-005
0.0199586
0.0400003
0.0599926
0.0799869
0.0999888
0.119999
0.140007
0.159997
0.179979
0.199989
-1.71266e-005
0.0199548
0.0399978
0.0599895
0.0799907
0.099983
0.119983
0.140008
0.160003
0.17998
0.199983
-1.65874e-005
0.0199639
0.0399933
0.0599985
0.0799808
0.0999834
0.119982
0.140004
0.160005
0.179998
0.199983
-9.59891e-006
0.0199812
0.0399902
0.0599914
0.0799924
0.0999902
0.119987
0.139997
0.160012
0.180005
0.19999
-4.83644e-006
0.0199925
0.0399945
0.0599958
0.079996
0.099995
0.119992
0.139994
0.160006
0.179999
0.199995
-1.8735e-006
0.0199976
0.0399979
0.0599983
0.0799983
0.099998
0.119998
0.139998
0.159999
0.179999
0.199998
-6.24676e-007
0.0199992
0.0399993
0.0599993
0.0799994
0.0999993
0.119999
0.139999
0.159999
0.179999
0.199999
-2.09529e-007
0.0199997
0.0399997
0.0599998
0.0799998
0.0999998
0.12
0.14
0.16
0.18
0.2
-6.94989e-008
0.0199999
0.0399999
0.0599999
0.0799999
0.0999999
0.12
0.14
0.16
0.18
0.2
-2.34502e-008
0.02
0.04
0.06
0.08
0.1
0.12
0.14
0.16
0.18
0.2
-1.11718e-008
0.02
0.04
0.06
0.08
0.1
0.12
0.14
0.16
0.18
0.2
-6.46971e-009
0.02
0.04
0.06
0.08
0.1
0.12
0.14
0.16
0.18
0.2
-1.26047e-009
0.02
0.04
0.06
0.08
0.1
0.12
0.14
0.16
0.18
0.2
-4.30961e-010
0.02
0.04
0.06
0.08
0.1
0.12
0.14
0.16
0.18
0.2
-9.23721e-011
0.02
0.04
0.06
0.08
0.1
0.12
0.14
0.16
0.18
0.2
0
0.02
0.04
0.06
0.08
0.1
0.12
0.14
0.16
0.18
0.2
6.84514e-008
6.87183e-008
6.94481e-008
7.05577e-008
7.14109e-008
7.18114e-008
7.23854e-008
7.35887e-008
7.37252e-008
7.2834e-008
3.47796e-007
3.5148e-007
3.54506e-007
3.58456e-007
3.61381e-007
3.64706e-007
3.67814e-007
3.70568e-007
3.70794e-007
3.67044e-007
1.15614e-006
1.16709e-006
1.17561e-006
1.18346e-006
1.19131e-006
1.20109e-006
1.2096e-006
1.21521e-006
1.21434e-006
1.20508e-006
2.7108e-006
2.72783e-006
2.74332e-006
2.76069e-006
2.77669e-006
2.77844e-006
2.79795e-006
2.80796e-006
2.80481e-006
2.79979e-006
5.3718e-006
5.40043e-006
5.43592e-006
5.4663e-006
5.49965e-006
5.50157e-006
5.53513e-006
5.55351e-006
5.56966e-006
5.51043e-006
1.05194e-005
1.05545e-005
1.05934e-005
1.06419e-005
1.06933e-005
1.07155e-005
1.0748e-005
1.07934e-005
1.07813e-005
1.07358e-005
2.01182e-005
2.03329e-005
2.0457e-005
2.05033e-005
2.05631e-005
2.07879e-005
2.08604e-005
2.08366e-005
2.08623e-005
2.05841e-005
3.84847e-005
3.85337e-005
3.86429e-005
3.90056e-005
3.92397e-005
3.92109e-005
3.93207e-005
3.96814e-005
3.9519e-005
3.95879e-005
7.1809e-005
7.22474e-005
7.26216e-005
7.26101e-005
7.29273e-005
7.34438e-005
7.39481e-005
7.37841e-005
7.40922e-005
7.3105e-005
0.00013188
0.000132665
0.000133225
0.00013416
0.000134853
0.000135315
0.000135526
0.000136119
0.000135401
0.000137416
0.000240457
0.000240153
0.000241206
0.000242157
0.000243269
0.000245478
0.000247049
0.000247787
0.000248071
0.000243438
0.000426232
0.000432744
0.000432757
0.000434888
0.000436087
0.000435173
0.000438068
0.000439123
0.000443518
0.000446543
0.00075672
0.000750551
0.000758956
0.000757043
0.000768633
0.000780855
0.000779419
0.000793684
0.000775324
0.000757783
0.00132789
0.001339
0.00132884
0.00137142
0.00132613
0.00132915
0.00136191
0.00132923
0.00137105
0.00138723
0.00221731
0.00228208
0.0023036
0.0021929
0.00236455
0.00233684
0.00229223
0.00241694
0.00235453
0.00224497
0.00397982
0.00378907
0.00388681
0.00402447
0.00380698
0.00393937
0.00406284
0.00390511
0.00392977
0.00404368
0.00609748
0.0066248
0.00652019
0.00608056
0.00662096
0.00654497
0.00633838
0.00669631
0.00667823
0.00645904
0.0105051
0.00970502
0.0104449
0.0106361
0.0102645
0.0105465
0.0107079
0.0106437
0.0106194
0.0100677
0.0153505
0.0161778
0.0158472
0.0161975
0.0163221
0.0160111
0.0163794
0.0160293
0.0162039
0.0159164
0.0236767
0.0237237
0.0236653
0.0244331
0.0236288
0.0236934
0.0234009
0.0239613
0.0237037
0.0224312
0.0325887
0.0329579
0.0337252
0.0347301
0.0341769
0.0335832
0.0343075
0.0338663
0.0333388
0.0327957
0.0457134
0.0461705
0.0465926
0.0476216
0.0463577
0.046431
0.0464001
0.0464014
0.0455235
0.0447878
0.0606347
0.0610957
0.0622787
0.0631425
0.0629331
0.06206
0.0623473
0.0619934
0.0602918
0.0604583
0.0784144
0.0789176
0.0808975
0.0814868
0.0815737
0.079322
0.0804558
0.0801666
0.0783919
0.0789112
0.0985053
0.0993776
0.102361
0.102637
0.102687
0.100856
0.101674
0.101178
0.0988183
0.0998589
0.122306
0.12207
0.126054
0.12637
0.126598
0.124596
0.125623
0.12492
0.121642
0.122491
0.147972
0.147857
0.15201
0.15263
0.152967
0.15072
0.15162
0.149203
0.147579
0.150521
0.177463
0.17609
0.179662
0.181179
0.181711
0.179252
0.180163
0.176728
0.17441
0.178924
0.208251
0.205356
0.209139
0.211644
0.212854
0.210087
0.210087
0.207786
0.205183
0.210289
0.241507
0.237684
0.241142
0.244552
0.245521
0.24123
0.241269
0.239927
0.238611
0.242195
0.274026
0.271748
0.275946
0.279826
0.279308
0.275443
0.276069
0.274065
0.272318
0.276714
0.308564
0.307175
0.31381
0.316541
0.314844
0.311819
0.312999
0.308794
0.30817
0.312534
0.344984
0.347601
0.354075
0.354482
0.352242
0.34958
0.352075
0.347679
0.34649
0.350306
0.385633
0.390183
0.395451
0.393734
0.391295
0.389499
0.393386
0.388836
0.385571
0.386343
0.427425
0.434633
0.438268
0.434408
0.432278
0.43167
0.436825
0.431845
0.425683
0.42927
0.471186
0.479279
0.479204
0.477864
0.476111
0.475024
0.481173
0.476509
0.470062
0.472527
0.517985
0.524824
0.525534
0.523372
0.518399
0.520217
0.526836
0.522338
0.515723
0.515844
0.567799
0.573916
0.573808
0.566311
0.560712
0.560928
0.573458
0.570778
0.561518
0.558595
0.612887
0.618665
0.619461
0.614357
0.609689
0.607031
0.613864
0.619778
0.611247
0.602448
0.651528
0.663012
0.663135
0.659845
0.654021
0.651302
0.65852
0.659432
0.65125
0.648504
0.700675
0.709231
0.709104
0.707931
0.703751
0.699578
0.703317
0.704909
0.701639
0.702504
0.740274
0.741745
0.738818
0.738484
0.738161
0.735075
0.732908
0.739393
0.73882
0.73959
0.777215
0.782977
0.776971
0.774289
0.77494
0.777386
0.7819
0.776266
0.774217
0.777215
0.798331
0.802908
0.800288
0.797805
0.796618
0.798357
0.798933
0.797389
0.795806
0.79747
0.819591
0.821486
0.822441
0.819155
0.817786
0.818649
0.820004
0.81893
0.818418
0.817925
0.829
0.830393
0.831388
0.829987
0.827828
0.8289
0.831761
0.828929
0.828127
0.828118
0.83538
0.836168
0.835983
0.83554
0.835153
0.835354
0.835577
0.835828
0.835516
0.835215
0.83765
0.838255
0.838169
0.837298
0.837394
0.837416
0.83816
0.837826
0.837746
0.837623
0.842335
0.840524
0.840916
0.838271
0.835257
0.843624
0.836748
0.839885
0.837324
0.837972
0.839241
0.838439
0.842928
0.840329
0.837474
0.840515
0.837044
0.840795
0.839516
0.839366
0.830897
0.837344
0.830171
0.836417
0.846282
0.822647
0.84719
0.839904
0.843434
0.840159
0.836011
0.836908
0.839262
0.840858
0.836006
0.83743
0.837208
0.842477
0.841097
0.837439
0.838938
0.839151
0.840887
0.84138
0.840158
0.839812
0.840545
0.841432
0.84222
0.840105
0.842134
0.841364
0.841636
0.842612
0.842126
0.842459
0.842744
0.842838
0.843406
0.842157
0.843348
0.842659
0.842845
0.842859
0.843952
0.844826
0.843948
0.844551
0.843228
0.844557
0.843625
0.843408
0.843015
0.843413
0.844328
0.844987
0.844557
0.844364
0.843658
0.845064
0.843698
0.843052
0.842871
0.843366
0.8441
0.844354
0.84447
0.843791
0.844258
0.844009
0.843369
0.84251
0.842799
0.842885
0.843529
0.843605
0.843737
0.843162
0.843572
0.843519
0.842515
0.842503
0.842589
0.842579
0.842954
0.843014
0.843023
0.84263
0.842831
0.842819
0.842084
0.84243
0.842218
0.842554
0.842354
0.842568
0.84257
0.842342
0.842696
0.84212
0.842042
0.842091
0.841951
0.842158
0.841985
0.842239
0.842106
0.842293
0.842053
0.84222
0.841859
0.841925
0.842054
0.841654
0.84215
0.841947
0.842027
0.842184
0.841854
0.842037
0.841877
0.841804
0.841911
0.841698
0.841884
0.841803
0.842067
0.842078
0.841817
0.841911
0.841958
0.841904
0.841731
0.841934
0.841577
0.84188
0.841974
0.841951
0.841947
0.841847
0.841936
0.841922
0.841816
0.841877
0.8418
0.841774
0.842077
0.84204
0.842137
0.841786
0.842038
0.842009
0.841952
0.841925
0.841998
0.841997
0.841954
0.842331
0.841863
0.842208
0.842188
0.842189
0.842117
0.842145
0.84215
0.84223
0.842114
0.842185
0.842245
0.842372
0.842407
0.842457
0.842442
0.842355
0.842319
0.842388
0.842421
0.842405
0.842571
0.842349
0.842785
0.842675
0.84287
0.842707
0.842588
0.842659
0.842651
0.84272
0.842666
0.842755
0.842929
0.842972
0.843052
0.843221
0.843109
0.84289
0.843039
0.842875
0.843293
0.842851
0.843432
0.843456
0.843281
0.843658
0.84357
0.843335
0.843338
0.843314
0.843319
0.843467
0.843786
0.843852
0.843822
0.844034
0.843798
0.843735
0.843818
0.843774
0.843559
0.843766
0.844245
0.844297
0.844253
0.844187
0.844403
0.844158
0.844533
0.844181
0.843955
0.84395
0.844672
0.844664
0.844659
0.844315
0.844663
0.844668
0.844584
0.844458
0.844411
0.844616
0.845044
0.844989
0.844968
0.844917
0.844854
0.845044
0.844958
0.844729
0.844902
0.844737
0.845397
0.845285
0.845191
0.845339
0.845152
0.845293
0.84525
0.845168
0.84529
0.845384
0.845675
0.845636
0.845571
0.845575
0.845564
0.845596
0.845461
0.84563
0.845684
0.845531
0.845865
0.845978
0.845926
0.84593
0.845966
0.845876
0.846083
0.845951
0.845907
0.846048
0.846283
0.846397
0.8463
0.846284
0.846302
0.846224
0.846062
0.846393
0.84635
0.846608
0.846673
0.846829
0.846827
0.846879
0.846737
0.846865
0.846745
0.846696
0.846521
0.846499
0.846896
0.847362
0.847124
0.84698
0.847274
0.847123
0.847369
0.846582
0.846769
0.847112
0.847181
0.847978
0.847864
0.847996
0.847502
0.847442
0.847639
0.847705
0.847204
0.847407
0.845091
0.845482
0.844931
0.844163
0.845671
0.845112
0.844536
0.844278
0.84485
0.844958
0.83831
0.839398
0.838591
0.838
0.838195
0.838284
0.838776
0.838536
0.837383
0.837431
0.820569
0.821577
0.820116
0.819719
0.819654
0.820634
0.821157
0.820502
0.818865
0.819195
0.760253
0.761822
0.759327
0.759327
0.759453
0.760126
0.760301
0.759325
0.757888
0.758497
0.633751
0.637704
0.633042
0.636846
0.63316
0.632151
0.632402
0.632056
0.632385
0.633094
0.361979
0.368372
0.368438
0.367565
0.366939
0.367309
0.363566
0.367248
0.365819
0.368022
0.145835
0.148806
0.149179
0.148847
0.148866
0.149635
0.148772
0.148344
0.149799
0.147479
0.0541435
0.0552273
0.0556762
0.0557419
0.055826
0.0561301
0.0564766
0.0564173
0.0565204
0.0567836
0.0191926
0.0195165
0.0197103
0.019804
0.0198857
0.0200261
0.0201643
0.0202316
0.0202411
0.0199196
0.00664556
0.00674148
0.00681111
0.00685985
0.00690179
0.00694888
0.00699874
0.00703326
0.00705962
0.00698012
0.00227522
0.00230535
0.00232931
0.00234884
0.00236567
0.00238153
0.00239533
0.00240614
0.00241237
0.00238981
0.000774145
0.000783944
0.000792065
0.00079923
0.000805403
0.00081018
0.000814285
0.000818365
0.000827669
0.000803282
0.000261897
0.000265504
0.000268262
0.000270703
0.000272468
0.000274497
0.000275676
0.000277251
0.000279912
0.000275568
8.87739e-005
8.96053e-005
9.0571e-005
9.13625e-005
9.2358e-005
9.22432e-005
9.32293e-005
9.42742e-005
9.38912e-005
9.32665e-005
2.98209e-005
3.01587e-005
3.0479e-005
3.07567e-005
3.11468e-005
3.12806e-005
3.14437e-005
3.18435e-005
3.19977e-005
3.15709e-005
1.00304e-005
1.01294e-005
1.02312e-005
1.03325e-005
1.04476e-005
1.05602e-005
1.05969e-005
1.07208e-005
1.07931e-005
1.06542e-005
3.41325e-006
3.44974e-006
3.48533e-006
3.53066e-006
3.55264e-006
3.59792e-006
3.62379e-006
3.65736e-006
3.64287e-006
3.61743e-006
7.02752e-007
7.08516e-007
7.15888e-007
7.24036e-007
7.3476e-007
7.45231e-007
7.28401e-007
7.32126e-007
7.43345e-007
7.47041e-007
	1	12	13	2
	2	13	14	3
	3	14	15	4
	4	15	16	5
	5	16	17	6
	6	17	18	7
	7	18	19	8
	8	19	20	9
	9	20	21	10
	10	21	22	11
	12	23	24	13
	13	24	25	14
	14	25	26	15
	15	26	27	16
	16	27	28	17
	17	28	29	18
	18	29	30	19
	19	30	31	20
	20	31	32	21
	21	32	33	22
	23	34	35	24
	24	35	36	25
	25	36	37	26
	26	37	38	27
	27	38	39	28
	28	39	40	29
	29	40	41	30
	30	41	42	31
	31	42	43	32
	32	43	44	33
	34	45	46	35
	35	46	47	36
	36	47	48	37
	37	48	49	38
	38	49	50	39
	39	50	51	40
	40	51	52	41
	41	52	53	42
	42	53	54	43
	43	54	55	44
	45	56	57	46
	46	57	58	47
	47	58	59	48
	48	59	60	49
	49	60	61	50
	50	61	62	51
	51	62	63	52
	52	63	64	53
	53	64	65	54
	54	65	66	55
	56	67	68	57
	57	68	69	58
	58	69	70	59
	59	70	71	60
	60	71	72	61
	61	72	73	62
	62	73	74	63
	63	74	75	64
	64	75	76	65
	65	76	77	66
	67	78	79	68
	68	79	80	69
	69	80	81	70
	70	81	82	71
	71	82	83	72
	72	83	84	73
	73	84	85	74