VARIABLES = X, Y
ZONE N = 891, E = 800, F = FEPOINT, ET = QUADRILATERAL
	0.01	0
	0.00987688	0.00156434
	0.00951057	0.00309017
	0.00891007	0.00453991
	0.00809017	0.00587785
	0.00707107	0.00707107
	0.00587785	0.00809017
	0.0045399	0.00891007
	0.00309017	0.00951057
	0.00156434	0.00987688
	-2.32051e-010	0.01
	0.0125	0
	0.0123461	0.00195543
	0.0118882	0.00386271
	0.0111376	0.00567488
	0.0101127	0.00734732
	0.00883883	0.00883883
	0.00734732	0.0101127
	0.00567488	0.0111376
	0.00386271	0.0118882
	0.00195543	0.0123461
	-2.90064e-010	0.0125
	0.025	0
	0.0246922	0.00391086
	0.0237764	0.00772542
	0.0222752	0.0113498
	0.0202254	0.0146946
	0.0176777	0.0176777
	0.0146946	0.0202254
	0.0113498	0.0222752
	0.00772542	0.0237764
	0.00391086	0.0246922
	-5.80128e-010	0.025
	0.0375	0
	0.0370383	0.00586629
	0.0356646	0.0115881
	0.0334127	0.0170246
	0.0303381	0.0220419
	0.0265165	0.0265165
	0.0220419	0.0303381
	0.0170246	0.0334127
	0.0115881	0.0356646
	0.00586629	0.0370383
	-8.70191e-010	0.0375
	0.05	0
	0.0493844	0.00782172
	0.0475528	0.0154508
	0.0445503	0.0226995
	0.0404508	0.0293893
	0.0353553	0.0353553
	0.0293893	0.0404509
	0.0226995	0.0445503
	0.0154508	0.0475528
	0.00782172	0.0493844
	-1.16026e-009	0.05
	0.0625	0
	0.0617305	0.00977715
	0.059441	0.0193136
	0.0556879	0.0283744
	0.0505636	0.0367366
	0.0441942	0.0441942
	0.0367366	0.0505636
	0.0283744	0.0556879
	0.0193136	0.059441
	0.00977715	0.0617305
	-1.45032e-009	0.0625
	0.075	0
	0.0740766	0.0117326
	0.0713292	0.0231763
	0.0668255	0.0340493
	0.0606763	0.0440839
	0.053033	0.053033
	0.0440839	0.0606763
	0.0340493	0.0668255
	0.0231763	0.0713292
	0.0117326	0.0740766
	-1.74038e-009	0.075
	0.0875	0
	0.0864227	0.013688
	0.0832174	0.027039
	0.0779631	0.0397242
	0.070789	0.0514312
	0.0618718	0.0618718
	0.0514312	0.070789
	0.0397242	0.0779631
	0.027039	0.0832174
	0.013688	0.0864227
	-2.03045e-009	0.0875
	0.1	0
	0.0987688	0.0156434
	0.0951057	0.0309017
	0.0891007	0.0453991
	0.0809017	0.0587785
	0.0707107	0.0707107
	0.0587785	0.0809017
	0.045399	0.0891007
	0.0309017	0.0951057
	0.0156434	0.0987688
	-2.32051e-009	0.1
	0.1125	0
	0.111115	0.0175989
	0.106994	0.0347644
	0.100238	0.0510739
	0.0910144	0.0661258
	0.0795495	0.0795495
	0.0661258	0.0910144
	0.0510739	0.100238
	0.0347644	0.106994
	0.0175989	0.111115
	-2.61057e-009	0.1125
	0.125	0
	0.123461	0.0195543
	0.118882	0.0386271
	0.111376	0.0567488
	0.101127	0.0734732
	0.0883883	0.0883883
	0.0734732	0.101127
	0.0567488	0.111376
	0.0386271	0.118882
	0.0195543	0.123461
	-2.90064e-009	0.125
	0.1375	0
	0.135807	0.0215097
	0.13077	0.0424898
	0.122513	0.0624237
	0.11124	0.0808205
	0.0972272	0.0972272
	0.0808205	0.11124
	0.0624237	0.122513
	0.0424898	0.13077
	0.0215097	0.135807
	-3.1907e-009	0.1375
	0.15	0
	0.148153	0.0234652
	0.142658	0.0463525
	0.133651	0.0680986
	0.121353	0.0881678
	0.106066	0.106066
	0.0881678	0.121353
	0.0680986	0.133651
	0.0463525	0.142658
	0.0234652	0.148153
	-3.48077e-009	0.15
	0.1625	0
	0.160499	0.0254206
	0.154547	0.0502153
	0.144789	0.0737735
	0.131465	0.0955151
	0.114905	0.114905
	0.0955151	0.131465
	0.0737735	0.144789
	0.0502153	0.154547
	0.0254206	0.160499
	-3.77083e-009	0.1625
	0.175	0
	0.172845	0.027376
	0.166435	0.054078
	0.155926	0.0794483
	0.141578	0.102862
	0.123744	0.123744
	0.102862	0.141578
	0.0794483	0.155926
	0.054078	0.166435
	0.027376	0.172845
	-4.06089e-009	0.175
	0.1875	0
	0.185192	0.0293315
	0.178323	0.0579407
	0.167064	0.0851232
	0.151691	0.11021
	0.132583	0.132583
	0.11021	0.151691
	0.0851232	0.167064
	0.0579407	0.178323
	0.0293315	0.185192
	-4.35096e-009	0.1875
	0.2	0
	0.197538	0.0312869
	0.190211	0.0618034
	0.178201	0.0907981
	0.161803	0.117557
	0.141421	0.141421
	0.117557	0.161803
	0.0907981	0.178201
	0.0618034	0.190211
	0.0312869	0.197538
	-4.64102e-009	0.2
	0.2125	0
	0.209884	0.0332423
	0.2021	0.0656661
	0.189339	0.096473
	0.171916	0.124904
	0.15026	0.15026
	0.124904	0.171916
	0.096473	0.189339
	0.0656661	0.2021
	0.0332423	0.209884
	-4.93108e-009	0.2125
	0.225	0
	0.22223	0.0351978
	0.213988	0.0695288
	0.200476	0.102148
	0.182029	0.132252
	0.159099	0.159099
	0.132252	0.182029
	0.102148	0.200476
	0.0695288	0.213988
	0.0351977	0.22223
	-5.22115e-009	0.225
	0.2375	0
	0.234576	0.0371532
	0.225876	0.0733915
	0.211614	0.107823
	0.192142	0.139599
	0.167938	0.167938
	0.139599	0.192142
	0.107823	0.211614
	0.0733915	0.225876
	0.0371532	0.234576
	-5.51121e-009	0.2375
	0.25	0
	0.246922	0.0391086
	0.237764	0.0772542
	0.222752	0.113498
	0.202254	0.146946
	0.176777	0.176777
	0.146946	0.202254
	0.113498	0.222752
	0.0772542	0.237764
	0.0391086	0.246922
	-5.80128e-009	0.25
	0.2625	0
	0.259268	0.041064
	0.249652	0.081117
	0.233889	0.119173
	0.212367	0.154294
	0.185616	0.185616
	0.154294	0.212367
	0.119173	0.233889
	0.081117	0.249652
	0.041064	0.259268
	-6.09134e-009	0.2625
	0.275	0
	0.271614	0.0430195
	0.261541	0.0849797
	0.245027	0.124847
	0.22248	0.161641
	0.194454	0.194454
	0.161641	0.22248
	0.124847	0.245027
	0.0849797	0.261541
	0.0430195	0.271614
	-6.3814e-009	0.275
	0.2875	0
	0.28396	0.0449749
	0.273429	0.0888424
	0.256164	0.130522
	0.232592	0.168988
	0.203293	0.203293
	0.168988	0.232592
	0.130522	0.256164
	0.0888424	0.273429
	0.0449749	0.28396
	-6.67147e-009	0.2875
	0.3	0
	0.296307	0.0469303
	0.285317	0.0927051
	0.267302	0.136197
	0.242705	0.176336
	0.212132	0.212132
	0.176336	0.242705
	0.136197	0.267302
	0.0927051	0.285317
	0.0469303	0.296307
	-6.96153e-009	0.3
	0.3125	0
	0.308653	0.0488858
	0.297205	0.0965678
	0.27844	0.141872
	0.252818	0.183683
	0.220971	0.220971
	0.183683	0.252818
	0.141872	0.27844
	0.0965678	0.297205
	0.0488858	0.308653
	-7.25159e-009	0.3125
	0.325	0
	0.320999	0.0508412
	0.309093	0.100431
	0.289577	0.147547
	0.262931	0.19103
	0.22981	0.22981
	0.19103	0.262931
	0.147547	0.289577
	0.100431	0.309093
	0.0508412	0.320999
	-7.54166e-009	0.325
	0.3375	0
	0.333345	0.0527966
	0.320982	0.104293
	0.300715	0.153222
	0.273043	0.198378
	0.238649	0.238649
	0.198378	0.273043
	0.153222	0.300715
	0.104293	0.320982
	0.0527966	0.333345
	-7.83172e-009	0.3375
	0.35	0
	0.345691	0.0547521
	0.33287	0.108156
	0.311852	0.158897
	0.283156	0.205725
	0.247487	0.247487
	0.205725	0.283156
	0.158897	0.311852
	0.108156	0.33287
	0.0547521	0.345691
	-8.12179e-009	0.35
	0.3625	0
	0.358037	0.0567075
	0.344758	0.112019
	0.32299	0.164572
	0.293269	0.213072
	0.256326	0.256326
	0.213072	0.293269
	0.164572	0.32299
	0.112019	0.344758
	0.0567075	0.358037
	-8.41185e-009	0.3625
	0.375	0
	0.370383	0.0586629
	0.356646	0.115881
	0.334127	0.170246
	0.303381	0.220419
	0.265165	0.265165
	0.220419	0.303381
	0.170246	0.334127
	0.115881	0.356646
	0.0586629	0.370383
	-8.70191e-009	0.375
	0.3875	0
	0.382729	0.0606184
	0.368534	0.119744
	0.345265	0.175921
	0.313494	0.227767
	0.274004	0.274004
	0.227767	0.313494
	0.175921	0.345265
	0.119744	0.368534
	0.0606183	0.382729
	-8.99198e-009	0.3875
	0.4	0
	0.395075	0.0625738
	0.380423	0.123607
	0.356403	0.181596
	0.323607	0.235114
	0.282843	0.282843
	0.235114	0.323607
	0.181596	0.356403
	0.123607	0.380423
	0.0625738	0.395075
	-9.28204e-009	0.4
	0.4125	0
	0.407421	0.0645292
	0.392311	0.12747
	0.36754	0.187271
	0.33372	0.242461
	0.291682	0.291682
	0.242461	0.33372
	0.187271	0.36754
	0.12747	0.392311
	0.0645292	0.407421
	-9.57211e-009	0.4125
	0.425	0
	0.419768	0.0664846
	0.404199	0.131332
	0.378678	0.192946
	0.343832	0.249809
	0.30052	0.30052
	0.249809	0.343832
	0.192946	0.378678
	0.131332	0.404199
	0.0664846	0.419768
	-9.86217e-009	0.425
	0.4375	0
	0.432114	0.0684401
	0.416087	0.135195
	0.389815	0.198621
	0.353945	0.257156
	0.309359	0.309359
	0.257156	0.353945
	0.198621	0.389815
	0.135195	0.416087
	0.0684401	0.432114
	-1.01522e-008	0.4375
	0.45	0
	0.44446	0.0703955
	0.427975	0.139058
	0.400953	0.204296
	0.364058	0.264503
	0.318198	0.318198
	0.264503	0.364058
	0.204296	0.400953
	0.139058	0.427975
	0.0703955	0.44446
	-1.04423e-008	0.45
	0.4625	0
	0.456806	0.0723509
	0.439864	0.14292
	0.412091	0.209971
	0.37417	0.271851
	0.327037	0.327037
	0.271851	0.37417
	0.209971	0.412091
	0.14292	0.439864
	0.0723509	0.456806
	-1.07324e-008	0.4625
	0.475	0
	0.469152	0.0743064
	0.451752	0.146783
	0.423228	0.215645
	0.384283	0.279198
	0.335876	0.335876
	0.279198	0.384283
	0.215645	0.423228
	0.146783	0.451752
	0.0743064	0.469152
	-1.10224e-008	0.475
	0.4875	0
	0.481498	0.0762618
	0.46364	0.150646
	0.434366	0.22132
	0.394396	0.286545
	0.344715	0.344715
	0.286545	0.394396
	0.22132	0.434366
	0.150646	0.46364
	0.0762618	0.481498
	-1.13125e-008	0.4875
	0.5	0
	0.493844	0.0782172
	0.475528	0.154508
	0.445503	0.226995
	0.404508	0.293893
	0.353553	0.353553
	0.293893	0.404509
	0.226995	0.445503
	0.154508	0.475528
	0.0782172	0.493844
	-1.16026e-008	0.5
	0.5125	0
	0.50619	0.0801727
	0.487416	0.158371
	0.456641	0.23267
	0.414621	0.30124
	0.362392	0.362392
	0.30124	0.414621
	0.23267	0.456641
	0.158371	0.487416
	0.0801727	0.50619
	-1.18926e-008	0.5125
	0.525	0
	0.518536	0.0821281
	0.499305	0.162234
	0.467778	0.238345
	0.424734	0.308587
	0.371231	0.371231
	0.308587	0.424734
	0.238345	0.467778
	0.162234	0.499305
	0.0821281	0.518536
	-1.21827e-008	0.525
	0.5375	0
	0.530882	0.0840835
	0.511193	0.166097
	0.478916	0.24402
	0.434847	0.315935
	0.38007	0.38007
	0.315935	0.434847
	0.24402	0.478916
	0.166097	0.511193
	0.0840835	0.530882
	-1.24727e-008	0.5375
	0.55	0
	0.543229	0.086039
	0.523081	0.169959
	0.490054	0.249695
	0.444959	0.323282
	0.388909	0.388909
	0.323282	0.444959
	0.249695	0.490054
	0.169959	0.523081
	0.0860389	0.543229
	-1.27628e-008	0.55
	0.5625	0
	0.555575	0.0879944
	0.534969	0.173822
	0.501191	0.25537
	0.455072	0.330629
	0.397748	0.397748
	0.330629	0.455072
	0.25537	0.501191
	0.173822	0.534969
	0.0879944	0.555575
	-1.30529e-008	0.5625
	0.575	0
	0.567921	0.0899498
	0.546857	0.177685
	0.512329	0.261045
	0.465185	0.337977
	0.406586	0.406586
	0.337977	0.465185
	0.261045	0.512329
	0.177685	0.546858
	0.0899498	0.567921
	-1.33429e-008	0.575
	0.5875	0
	0.580267	0.0919052
	0.558746	0.181547
	0.523466	0.266719
	0.475297	0.345324
	0.415425	0.415425
	0.345324	0.475297
	0.266719	0.523466
	0.181547	0.558746
	0.0919052	0.580267
	-1.3633e-008	0.5875
	0.6	0
	0.592613	0.0938607
	0.570634	0.18541
	0.534604	0.272394
	0.48541	0.352671
	0.424264	0.424264
	0.352671	0.48541
	0.272394	0.534604
	0.18541	0.570634
	0.0938607	0.592613
	-1.39231e-008	0.6
	0.6125	0
	0.604959	0.0958161
	0.582522	0.189273
	0.545741	0.278069
	0.495523	0.360018
	0.433103	0.433103
	0.360018	0.495523
	0.278069	0.545742
	0.189273	0.582522
	0.0958161	0.604959
	-1.42131e-008	0.6125
	0.625	0
	0.617305	0.0977715
	0.59441	0.193136
	0.556879	0.283744
	0.505636	0.367366
	0.441942	0.441942
	0.367366	0.505636
	0.283744	0.556879
	0.193136	0.59441
	0.0977715	0.617305
	-1.45032e-008	0.625
	0.6375	0
	0.629651	0.099727
	0.606299	0.196998
	0.568017	0.289419
	0.515748	0.374713
	0.450781	0.450781
	0.374713	0.515748
	0.289419	0.568017
	0.196998	0.606299
	0.099727	0.629651
	-1.47933e-008	0.6375
	0.65	0
	0.641997	0.101682
	0.618187	0.200861
	0.579154	0.295094
	0.525861	0.38206
	0.459619	0.459619
	0.38206	0.525861
	0.295094	0.579154
	0.200861	0.618187
	0.101682	0.641997
	-1.50833e-008	0.65
	0.6625	0
	0.654344	0.103638
	0.630075	0.204724
	0.590292	0.300769
	0.535974	0.389408
	0.468458	0.468458
	0.389408	0.535974
	0.300769	0.590292
	0.204724	0.630075
	0.103638	0.654344
	-1.53734e-008	0.6625
	0.675	0
	0.66669	0.105593
	0.641963	0.208586
	0.601429	0.306444
	0.546086	0.396755
	0.477297	0.477297
	0.396755	0.546086
	0.306444	0.601429
	0.208586	0.641963
	0.105593	0.66669
	-1.56634e-008	0.675
	0.6875	0
	0.679036	0.107549
	0.653851	0.212449
	0.612567	0.312118
	0.556199	0.404102
	0.486136	0.486136
	0.404102	0.556199
	0.312118	0.612567
	0.212449	0.653851
	0.107549	0.679036
	-1.59535e-008	0.6875
	0.7	0
	0.691382	0.109504
	0.66574	0.216312
	0.623705	0.317793
	0.566312	0.41145
	0.494975	0.494975
	0.41145	0.566312
	0.317793	0.623705
	0.216312	0.66574
	0.109504	0.691382
	-1.62436e-008	0.7
	0.7125	0
	0.703728	0.11146
	0.677628	0.220175
	0.634842	0.323468
	0.576425	0.418797
	0.503814	0.503814
	0.418797	0.576425
	0.323468	0.634842
	0.220175	0.677628
	0.11146	0.703728
	-1.65336e-008	0.7125
	0.725	0
	0.716074	0.113415
	0.689516	0.224037
	0.64598	0.329143
	0.586537	0.426144
	0.512652	0.512652
	0.426144	0.586537
	0.329143	0.64598
	0.224037	0.689516
	0.113415	0.716074
	-1.68237e-008	0.725
	0.7375	0
	0.72842	0.11537
	0.701404	0.2279
	0.657117	0.334818
	0.59665	0.433492
	0.521491	0.521491
	0.433492	0.59665
	0.334818	0.657117
	0.2279	0.701404
	0.11537	0.72842
	-1.71138e-008	0.7375
	0.75	0
	0.740766	0.117326
	0.713292	0.231763
	0.668255	0.340493
	0.606763	0.440839
	0.53033	0.53033
	0.440839	0.606763
	0.340493	0.668255
	0.231763	0.713292
	0.117326	0.740766
	-1.74038e-008	0.75
	0.7625	0
	0.753112	0.119281
	0.725181	0.235625
	0.679392	0.346168
	0.616875	0.448186
	0.539169	0.539169
	0.448186	0.616875
	0.346168	0.679392
	0.235625	0.725181
	0.119281	0.753112
	-1.76939e-008	0.7625
	0.775	0
	0.765458	0.121237
	0.737069	0.239488
	0.69053	0.351843
	0.626988	0.455534
	0.548008	0.548008
	0.455534	0.626988
	0.351843	0.69053
	0.239488	0.737069
	0.121237	0.765458
	-1.7984e-008	0.775
	0.7875	0
	0.777805	0.123192
	0.748957	0.243351
	0.701668	0.357518
	0.637101	0.462881
	0.556847	0.556847
	0.462881	0.637101
	0.357518	0.701668
	0.243351	0.748957
	0.123192	0.777805
	-1.8274e-008	0.7875
	0.8	0
	0.790151	0.125148
	0.760845	0.247214
	0.712805	0.363192
	0.647214	0.470228
	0.565685	0.565685
	0.470228	0.647214
	0.363192	0.712805
	0.247214	0.760845
	0.125148	0.790151
	-1.85641e-008	0.8
	0.8125	0
	0.802497	0.127103
	0.772733	0.251076
	0.723943	0.368867
	0.657326	0.477576
	0.574524	0.574524
	0.477576	0.657326
	0.368867	0.723943
	0.251076	0.772733
	0.127103	0.802497
	-1.88541e-008	0.8125
	0.825	0
	0.814843	0.129058
	0.784622	0.254939
	0.73508	0.374542
	0.667439	0.484923
	0.583363	0.583363
	0.484923	0.667439
	0.374542	0.73508
	0.254939	0.784622
	0.129058	0.814843
	-1.91442e-008	0.825
	0.8375	0
	0.827189	0.131014
	0.79651	0.258802
	0.746218	0.380217
	0.677552	0.49227
	0.592202	0.592202
	0.49227	0.677552
	0.380217	0.746218
	0.258802	0.79651
	0.131014	0.827189
	-1.94343e-008	0.8375
	0.85	0
	0.839535	0.132969
	0.808398	0.262664
	0.757356	0.385892
	0.687664	0.499617
	0.601041	0.601041
	0.499617	0.687664
	0.385892	0.757356
	0.262664	0.808398
	0.132969	0.839535
	-1.97243e-008	0.85
	0.8625	0
	0.851881	0.134925
	0.820286	0.266527
	0.768493	0.391567
	0.697777	0.506965
	0.60988	0.60988
	0.506965	0.697777
	0.391567	0.768493
	0.266527	0.820286
	0.134925	0.851881
	-2.00144e-008	0.8625
	0.875	0
	0.864227	0.13688
	0.832174	0.27039
	0.779631	0.397242
	0.70789	0.514312
	0.618718	0.618718
	0.514312	0.70789
	0.397242	0.779631
	0.27039	0.832174
	0.13688	0.864227
	-2.03045e-008	0.875
	0.8875	0
	0.876573	0.138836
	0.844063	0.274253
	0.790768	0.402917
	0.718003	0.521659
	0.627557	0.627557
	0.521659	0.718003
	0.402917	0.790768
	0.274253	0.844063
	0.138836	0.876573
	-2.05945e-008	0.8875
	0.9	0
	0.88892	0.140791
	0.855951	0.278115
	0.801906	0.408591
	0.728115	0.529007
	0.636396	0.636396
	0.529007	0.728115
	0.408591	0.801906
	0.278115	0.855951
	0.140791	0.88892
	-2.08846e-008	0.9
	0.9125	0
	0.901266	0.142746
	0.867839	0.281978
	0.813043	0.414266
	0.738228	0.536354
	0.645235	0.645235
	0.536354	0.738228
	0.414266	0.813043
	0.281978	0.867839
	0.142746	0.901266
	-2.11747e-008	0.9125
	0.925	0
	0.913612	0.144702
	0.879727	0.285841
	0.824181	0.419941
	0.748341	0.543701
	0.654074	0.654074
	0.543701	0.748341
	0.419941	0.824181
	0.285841	0.879727
	0.144702	0.913612
	-2.14647e-008	0.925
	0.9375	0
	0.925958	0.146657
	0.891615	0.289703
	0.835319	0.425616
	0.758453	0.551049
	0.662913	0.662913
	0.551049	0.758453
	0.425616	0.835319
	0.289703	0.891615
	0.146657	0.925958
	-2.17548e-008	0.9375
	0.95	0
	0.938304	0.148613
	0.903504	0.293566
	0.846456	0.431291
	0.768566	0.558396
	0.671751	0.671751
	0.558396	0.768566
	0.431291	0.846456
	0.293566	0.903504
	0.148613	0.938304
	-2.20448e-008	0.95
	0.9625	0
	0.95065	0.150568
	0.915392	0.297429
	0.857594	0.436966
	0.778679	0.565743
	0.68059	0.68059
	0.565743	0.778679
	0.436966	0.857594
	0.297429	0.915392
	0.150568	0.95065
	-2.23349e-008	0.9625
	0.975	0
	0.962996	0.152524
	0.92728	0.301292
	0.868731	0.442641
	0.788792	0.573091
	0.689429	0.689429
	0.573091	0.788792
	0.442641	0.868731
	0.301292	0.92728
	0.152524	0.962996
	-2.2625e-008	0.975
	0.9875	0
	0.975342	0.154479
	0.939168	0.305154
	0.879869	0.448316
	0.798904	0.580438
	0.698268	0.698268
	0.580438	0.798904
	0.448316	0.879869
	0.305154	0.939168
	0.154479	0.975342
	-2.2915e-008	0.9875
	1	0
	0.987688	0.156434
	0.951057	0.309017
	0.891007	0.453991
	0.809017	0.587785
	0.707107	0.707107
	0.587785	0.809017
	0.45399	0.891007
	0.309017	0.951057
	0.156434	0.987688
	-2.32051e-008	1
	1	12	13	2
	2	13	14	3
	3	14	15	4
	4	15	16	5
	5	16	17	6
	6	17	18	7
	7	18	19	8
	8	19	20	9
	9	20	21	10
	10	21	22	11
	12	23	24	13
	13	24	25	14
	14	25	26	15
	15	26	27	16
	16	27	28	17
	17	28	29	18
	18	29	30	19
	19	30	31	20
	20	31	32	21
	21	32	33	22
	23	34	35	24
	24	35	36	25
	25	36	37	26
	26	37	38	27
	27	38	39	28
	28	39	40	29
	29	40	41	30
	30	41	42	31
	31	42	43	32
	32	43	44	33
	34	45	46	35
	35	46	47	36
	36	47	48	37
	37	48	49	38
	38	49	50	39
	39	50	51	40
	40	51	52	41
	41	52	53	42
	42	53	54	43
	43	54	55	44
	45	56	57	46
	46	57	58	47
	47	58	59	48
	48	59	60	49
	49	60	61	50
	50	61	62	51
	51	62	63	52
	52	63	64	53
	53	64	65	54
	54	65	66	55
	56	67	68	57
	57	68	69	58
	58	69	70	59
	59	70	71	60
	60	71	72	61
	61	72	73	62
	62	73	74	63
	63	74	75	64
	64	75	76	65
	65	76	77	66
	67	78	79	68
	68	79	80	69
	69	80	81	70
	70	81	82	71
	71	82	83	72
	72	83	84	73
	73	84	85	74
	74	85	86	75
	75	86	87	76
	76	87	88	77
	78	89	90	79
	79	90	91	80
	80	91	92	81
	81	92	93	82
	82	93	94	83
	83	94	95	84
	84	95	96	85
	85	96	97	86
	86	97	98	87
	87	98	99	88
	89	100	101	90
	90	101	102	91
	91	102	103	92
	92	103	104	93
	93	104	105	94
	94	105	106	95
	95	106	107	96
	96	107	108	97
	97	108	109	98
	98	109	110	99
	100	111	112	101
	101	112	113	102
	102	113	114	103
	103	114	115	104
	104	115	116	105
	105	116	117	106
	106	117	118	107
	107	118	119	108
	108	119	120	109
	109	120	121	110
	111	122	123	112
	112	123	124	113
	113	124	125	114
	114	125	126	115
	115	126	127	116
	116	127	128	117
	117	128	129	118
	118	129	130	119
	119	130	131	120
	120	131	132	121
	122	133	134	123
	123	134	135	124
	124	135	136	125
	125	136	137	126
	126	137	138	127
	127	138	139	128
	128	139	140	129
	129	140	141	130
	130	141	142	131
	131	142	143	132
	133	144	145	134
	134	145	146	135
	135	146	147	136
	136	147	148	137
	137	148	149	138
	138	149	150	139
	139	150	151	140
	140	151	152	141
	141	152	153	142
	142	153	154	143
	144	155	156	145
	145	156	157	146
	146	157	158	147
	147	158	159	148
	148	159	160	149
	149	160	161	150
	150	161	162	151
	151	162	163	152
	152	163	164	153
	153	164	165	154
	155	166	167	156
	156	167	168	157
	157	168	169	158
	158	169	170	159
	159	170	171	160
	160	171	172	161
	161	172	173	162
	162	173	174	163
	163	174	175	164
	164	175	176	165
	166	177	178	167
	167	178	179	168
	168	179	180	169
	169	180	181	170
	170	181	182	171
	171	182	183	172
	172	183	184	173
	173	184	185	174
	174	185	186	175
	175	186	187	176
	177	188	189	178
	178	189	190	179
	179	190	191	180
	180	191	192	181
	181	192	193	182
	182	193	194	183
	183	194	195	184
	184	195	196	185
	185	196	197	186
	186	197	198	187
	188	199	200	189
	189	200	201	190
	190	201	202	191
	191	202	203	192
	192	203	204	193
	193	204	205	194
	194	205	206	195
	195	206	207	196
	196	207	208	197
	197	208	209	198
	199	210	211	200
	200	211	212	201
	201	212	213	202
	202	213	214	203
	203	214	215	204
	204	215	216	205
	205	216	217	206
	206	217	218	207
	207	218	219	208
	208	219	220	209
	210	221	222	211
	211	222	223	212
	212	223	224	213
	213	224	225	214
	214	225	226	215
	215	226	227	216
	216	227	228	217
	217	228	229	218
	218	229	230	219
	219	230	231	220
	221	232	233	222
	222	233	234	223
	223	234	235	224
	224	235	236	225
	225	236	237	226
	226	237	238	227
	227	238	239	228
	228	239	240	229
	229	240	241	230
	230	241	242	231
	232	243	244	233
	233	244	245	234
	234	245	246	235
	235	246	247	236
	236	247	248	237
	237	248	249	238
	238	249	250	239
	239	250	251	240
	240	251	252	241
	241	252	253	242
	243	254	255	244
	244	255	256	245
	245	256	257	246
	246	257	258	247
	247	258	259	248
	248	259	260	249
	249	260	261	250
	250	261	262	251
	251	262	263	252
	252	263	264	253
	254	265	266	255
	255	266	267	256
	256	267	268	257
	257	268	269	258
	258	269	270	259
	259	270	271	260
	260	271	272	261
	261	272	273	262
	262	273	274	263
	263	274	275	264
	265	276	277	266
	266	277	278	267
	267	278	279	268
	268	279	280	269
	269	280	281	270
	270	281	282	271
	271	282	283	272
	272	283	284	273
	273	284	285	274
	274	285	286	275
	276	287	288	277
	277	288	289	278
	278	289	290	279
	279	290	291	280
	280	291	292	281
	281	292	293	282
	282	293	294	283
	283	294	295	284
	284	295	296	285
	285	296	297	286
	287	298	299	288
	288	299	300	289
	289	300	301	290
	290	301	302	291
	291	302	303	292
	292	303	304	293
	293	304	305	294
	294	305	306	295
	295	306	307	296
	296	307	308	297
	298	309	310	299
	299	310	311	300
	300	311	312	301
	301	312	313	302
	302	313	314	303
	303	314	315	304
	304	315	316	305
	305	316	317	306
	306	317	318	307
	307	318	319	308
	309	320	321	310
	310	321	322	311
	311	322	323	312
	312	323	324	313
	313	324	325	314
	314	325	326	315
	315	326	327	316
	316	327	328	317
	317	328	329	318
	318	329	330	319
	320	331	332	321
	321	332	333	322
	322	333	334	323
	323	334	335	324
	324	335	336	325
	325	336	337	326
	326	337	338	327
	327	338	339	328
	328	339	340	329
	329	340	341	330
	331	342	343	332
	332	343	344	333
	333	344	345	334
	334	345	346	335
	335	346	347	336
	336	347	348	337
	337	348	349	338
	338	349	350	339
	339	350	351	340
	340	351	352	341
	342	353	354	343
	343	354	355	344
	344	355	356	345
	345	356	357	346
	346	357	358	347
	347	358	359	348
	348	359	360	349
	349	360	361	350
	350	361	362	351
	351	362	363	352
	353	364	365	354
	354	365	366	355
	355	366	367	356
	356	367	368	357
	357	368	369	358
	358	369	370	359
	359	370	371	360
	360	371	372	361
	361	372	373	362
	362	373	374	363
	364	375	376	365
	365	376	377	366
	366	377	378	367
	367	378	379	368
	368	379	380	369
	369	380	381	370
	370	381	382	371
	371	382	383	372
	372	383	384	373
	373	384	385	374
	375	386	387	376
	376	387	388	377
	377	388	389	378
	378	389	390	379
	379	390	391	380
	380	391	392	381
	381	392	393	382
	382	393	394	383
	383	394	395	384
	384	395	396	385
	386	397	398	387
	387	398	399	388
	388	399	400	389
	389	400	401	390
	390	401	402	391
	391	402	403	392
	392	403	404	393
	393	404	405	394
	394	405	406	395
	395	406	407	396
	397	408	409	398
	398	409	410	399
	399	410	411	400
	400	411	412	401
	401	412	413	402
	402	413	414	403
	403	414	415	404
	404	415	416	405
	405	416	417	406
	406	417	418	407
	408	419	420	409
	409	420	421	410
	410	421	422	411
	411	422	423	412
	412	423	424	413
	413	424	425	414
	414	425	426	415
	415	426	427	416
	416	427	428	417
	417	428	429	418
	419	430	431	420
	420	431	432	421
	421	432	433	422
	422	433	434	423
	423	434	435	424
	424	435	436	425
	425	436	437	426
	426	437	438	427
	427	438	439	428
	428	439	440	429
	430	441	442	431
	431	442	443	432
	432	443	444	433
	433	444	445	434
	434	445	446	435
	435	446	447	436
	436	447	448	437
	437	448	449	438
	438	449	450	439
	439	450	451	440
	441	452	453	442
	442	453	454	443
	443	454	455	444
	444	455	456	445
	445	456	457	446
	446	457	458	447
	447	458	459	448
	448	459	460	449
	449	460	461	450
	450	461	462	451
	452	463	464	453
	453	464	465	454
	454	465	466	455
	455	466	467	456
	456	467	468	457
	457	468	469	458
	458	469	470	459
	459	470	471	460
	460	471	472	461
	461	472	473	462
	463	474	475	464
	464	475	476	465
	465	476	477	466
	466	477	478	467
	467	478	479	468
	468	479	480	469
	469	480	481	470
	470	481	482	471
	471	482	483	472
	472	483	484	473
	474	485	486	475
	475	486	487	476
	476	487	488	477
	477	488	489	478
	478	489	490	479
	479	490	491	480
	480	491	492	481
	481	492	493	482
	482	493	494	483
	483	494	495	484
	485	496	497	486
	486	497	498	487
	487	498	499	488
	488	499	500	489
	489	500	501	490
	490	501	502	491
	491	502	503	492
	492	503	504	493
	493	504	505	494
	494	505	506	495
	496	507	508	497
	497	508	509	498
	498	509	510	499
	499	510	511	500
	500	511	512	501
	501	512	513	502
	502	513	514	503
	503	514	515	504
	504	515	516	505
	505	516	517	506
	507	518	519	508
	508	519	520	509
	509	520	521	510
	510	521	522	511
	511	522	523	512
	512	523	524	513
	513	524	525	514
	514	525	526	515
	515	526	527	516
	516	527	528	517
	518	529	530	519
	519	530	531	520
	520	531	532	521
	521	532	533	522
	522	533	534	523
	523	534	535	524
	524	535	536	525
	525	536	537	526
	526	537	538	527
	527	538	539	528
	529	540	541	530
	530	541	542	531
	531	542	543	532
	532	543	544	533
	533	544	545	534
	534	545	546	535
	535	546	547	536
	536	547	548	537
	537	548	549	538
	538	549	550	539
	540	551	552	541
	541	552	553	542
	542	553	554	543
	543	554	555	544
	544	555	556	545
	545	556	557	546
	546	557	558	547
	547	558	559	548
	548	559	560	549
	549	560	561	550
	551	562	563	552
	552	563	564	553
	553	564	565	554
	554	565	566	555
	555	566	567	556
	556	567	568	557
	557	568	569	558
	558	569	570	559
	559	570	571	560
	560	571	572	561
	562	573	574	563
	563	574	575	564
	564	575	576	565
	565	576	577	566
	566	577	578	567
	567	578	579	568
	568	579	580	569
	569	580	581	570
	570	581	582	571
	571	582	583	572
	573	584	585	574
	574	585	586	575
	575	586	587	576
	576	587	588	577
	577	588	589	578
	578	589	590	579
	579	590	591	580
	580	591	592	581
	581	592	593	582
	582	593	594	583
	584	595	596	585
	585	596	597	586
	586	597	598	587
	587	598	599	588
	588	599	600	589
	589	600	601	590
	590	601	602	591
	591	602	603	592
	592	603	604	593
	593	604	605	594
	595	606	607	596
	596	607	608	597
	597	608	609	598
	598	609	610	599
	599	610	611	600
	600	611	612	601
	601	612	613	602
	602	613	614	603
	603	614	615	604
	604	615	616	605
	606	617	618	607
	607	618	619	608
	608	619	620	609
	609	620	621	610
	610	621	622	611
	611	622	623	612
	612	623	624	613
	613	624	625	614
	614	625	626	615
	615	626	627	616
	617	628	629	618
	618	629	630	619
	619	630	631	620
	620	631	632	621
	621	632	633	622
	622	633	634	623
	623	634	635	624
	624	635	636	625
	625	636	637	626
	626	637	638	627
	628	639	640	629
	629	640	641	630
	630	641	642	631
	631	642	643	632
	632	643	644	633
	633	644	645	634
	634	645	646	635
	635	646	647	636
	636	647	648	637
	637	648	649	638
	639	650	651	640
	640	651	652	641
	641	652	653	642
	642	653	654	643
	643	654	655	644
	644	655	656	645
	645	656	657	646
	646	657	658	647
	647	658	659	648
	648	659	660	649
	650	661	662	651
	651	662	663	652
	652	663	664	653
	653	664	665	654
	654	665	666	655
	655	666	667	656
	656	667	668	657
	657	668	669	658
	658	669	670	659
	659	670	671	660
	661	672	673	662
	662	673	674	663
	663	674	675	664
	664	675	676	665
	665	676	677	666
	666	677	678	667
	667	678	679	668
	668	679	680	669
	669	680	681	670
	670	681	682	671
	672	683	684	673
	673	684	685	674
	674	685	686	675
	675	686	687	676
	676	687	688	677
	677	688	689	678
	678	689	690	679
	679	690	691	680
	680	691	692	681
	681	692	693	682
	683	694	695	684
	684	695	696	685
	685	696	697	686
	686	697	698	687
	687	698	699	688
	688	699	700	689
	689	700	701	690
	690	701	702	691
	691	702	703	692
	692	703	704	693
	694	705	706	695
	695	706	707	696
	696	707	708	697
	697	708	709	698
	698	709	710	699
	699	710	711	700
	700	711	712	701
	701	712	713	702
	702	713	714	703
	703	714	715	704
	705	716	717	706
	706	717	718	707
	707	718	719	708
	708	719	720	709
	709	720	721	710
	710	721	722	711
	711	722	723	712
	712	723	724	713
	713	724	725	714
	714	725	726	715
	716	727	728	717
	717	728	729	718
	718	729	730	719
	719	730	731	720
	720	731	732	721
	721	732	733	722
	722	733	734	723
	723	734	735	724
	724	735	736	725
	725	736	737	726
	727	738	739	728
	728	739	740	729
	729	740	741	730
	730	741	742	731
	731	742	743	732
	732	743	744	733
	733	744	745	734
	734	745	746	735
	735	746	747	736
	736	747	748	737
	738	749	750	739
	739	750	751	740
	740	751	752	741
	741	752	753	742
	742	753	754	743
	743	754	755	744
	744	755	756	745
	745	756	757	746
	746	757	758	747
	747	758	759	748
	749	760	761	750
	750	761	762	751
	751	762	763	752
	752	763	764	753
	753	764	765	754
	754	765	766	755
	755	766	767	756
	756	767	768	757
	757	768	769	758
	758	769	770	759
	760	771	772	761
	761	772	773	762
	762	773	774	763
	763	774	775	764
	764	775	776	765
	765	776	777	766
	766	777	778	767
	767	778	779	768
	768	779	780	769
	769	780	781	770
	771	782	783	772
	772	783	784	773
	773	784	785	774
	774	785	786	775
	775	786	787	776
	776	787	788	777
	777	788	789	778
	778	789	790	779
	779	790	791	780
	780	791	792	781
	782	793	794	783
	783	794	795	784
	784	795	796	785
	785	796	797	786
	786	797	798	787
	787	798	799	788
	788	799	800	789
	789	800	801	790
	790	801	802	791
	791	802	803	792
	793	804	805	794
	794	805	806	795
	795	806	807	796
	796	807	808	797
	797	808	809	798
	798	809	810	799
	799	810	811	800
	800	811	812	801
	801	812	813	802
	802	813	814	803
	804	815	816	805
	805	816	817	806
	806	817	818	807
	807	818	819	808
	808	819	820	809
	809	820	821	810
	810	821	822	811
	811	822	823	812
	812	823	824	813
	813	824	825	814
	815	826	827	816
	816	827	828	817
	817	828	829	818
	818	829	830	819
	819	830	831	820
	820	831	832	821
	821	832	833	822
	822	833	834	823
	823	834	835	824
	824	835	836	825
	826	837	838	827
	827	838	839	828
	828	839	840	829
	829	840	841	830
	830	841	842	831
	831	842	843	832
	832	843	844	833
	833	844	845	834
	834	845	846	835
	835	846	847	836
	837	848	849	838
	838	849	850	839
	839	850	851	840
	840	851	852	841
	841	852	853	842
	842	853	854	843
	843	854	855	844
	844	855	856	845
	845	856	857	846
	846	857	858	847
	848	859	860	849
	849	860	861	850
	850	861	862	851
	851	862	863	852
	852	863	864	853
	853	864	865	854
	854	865	866	855
	855	866	867	856
	856	867	868	857
	857	868	869	858
	859	870	871	860
	860	871	872	861
	861	872	873	862
	862	873	874	863
	863	874	875	864
	864	875	876	865
	865	876	877	866
	866	877	878	867
	867	878	879	868
	868	879	880	869
	870	881	882	871
	871	882	883	872
	872	883	884	873
	873	884	885	874
	874	885	886	875
	875	886	887	876
	876	887	888	877
	877	888	889	878
	878	889	890	879
	879	890	891	880
