VARIABLES = X, Y, ux
ZONE N = 1701, E = 1600
ZONETYPE = FEQUADRILATERAL
DATAPACKING = BLOCK
varlocation=([3]=cellcentered)
0.01
0.00996917
0.00987688
0.0097237
0.00951057
0.0092388
0.00891007
0.0085264
0.00809017
0.00760406
0.00707107
0.00649448
0.00587785
0.00522499
0.0045399
0.00382683
0.00309017
0.00233445
0.00156434
0.000784591
-2.32051e-010
0.0125009
0.0124624
0.012347
0.0121555
0.0118891
0.0115494
0.0111384
0.0106588
0.0101135
0.0095058
0.0088395
0.00811872
0.00734787
0.00653173
0.00567531
0.00478391
0.00386301
0.00291829
0.00195558
0.000980813
-2.90064e-010
0.025004
0.0249269
0.0246961
0.0243131
0.0237802
0.0231007
0.0222787
0.0213194
0.0202286
0.0190132
0.0176805
0.0162388
0.014697
0.0130645
0.0113516
0.00956861
0.00772665
0.00583706
0.00391148
0.00196179
-5.80128e-010
0.0375077
0.0373921
0.0370459
0.0364714
0.035672
0.0346526
0.0334196
0.0319806
0.0303444
0.0285211
0.026522
0.0243593
0.0220465
0.0195977
0.0170282
0.0143536
0.0115905
0.00875601
0.0058675
0.00294282
-8.70191e-010
0.0500136
0.0498595
0.0493979
0.0486318
0.0475658
0.0462066
0.0445625
0.0426436
0.0404619
0.0380307
0.035365
0.0324813
0.0293973
0.0261321
0.0227057
0.0191394
0.0154551
0.0116755
0.00782386
0.00392403
-1.16026e-009
0.0625233
0.0623306
0.0617536
0.0607958
0.0594632
0.057764
0.0557087
0.0533099
0.0505825
0.0475431
0.0442107
0.0406057
0.0367503
0.0326684
0.028385
0.0239267
0.0193208
0.0145958
0.00978081
0.00490553
-1.45032e-009
0.0750392
0.0748079
0.0741154
0.0729659
0.0713666
0.0693272
0.0668605
0.0639815
0.060708
0.0570603
0.0530608
0.0487341
0.044107
0.0392079
0.0340671
0.0287163
0.0231884
0.0175176
0.0117387
0.00588751
-1.74038e-009
0.0875647
0.0872948
0.0864867
0.0851453
0.0832791
0.0808993
0.0780208
0.0746613
0.0708414
0.0665848
0.0619177
0.0568688
0.0514693
0.0457525
0.0397536
0.0335096
0.027059
0.0204416
0.0136982
0.00687026
-2.03045e-009
0.100105
0.0997963
0.0988725
0.0973391
0.0952055
0.092485
0.0891942
0.0853536
0.0809867
0.0761205
0.070785
0.0650131
0.0588403
0.0523048
0.0454468
0.0383086
0.0309342
0.0233691
0.0156599
0.00785416
-2.32051e-009
0.112667
0.112319
0.11128
0.109554
0.107153
0.104091
0.100387
0.0960644
0.0911495
0.0856727
0.0796676
0.0731714
0.066224
0.0588684
0.0511498
0.0431158
0.034816
0.0263016
0.017625
0.00883976
-2.61057e-009
0.125259
0.124874
0.123718
0.121799
0.119129
0.115725
0.111607
0.106802
0.101337
0.0952485
0.0885722
0.0813499
0.073626
0.0654482
0.0568669
0.047935
0.0387075
0.0292414
0.019595
0.00982779
-2.90064e-009
0.137896
0.137471
0.136198
0.134086
0.131147
0.127399
0.122866
0.117576
0.11156
0.104857
0.0975075
0.0895566
0.0810535
0.0720507
0.0626037
0.0527707
0.0426124
0.0321913
0.0215718
0.0108192
-3.1907e-009
0.15059
0.150127
0.148737
0.14643
0.143221
0.139128
0.134178
0.1284
0.121831
0.114511
0.106484
0.0978014
0.0885155
0.0786839
0.0683672
0.0576289
0.0465354
0.0351549
0.0235577
0.0118153
-3.48077e-009
0.163363
0.16286
0.161352
0.15885
0.155368
0.150929
0.145558
0.139291
0.132164
0.124223
0.115516
0.106097
0.0960232
0.0853577
0.0741659
0.0625169
0.0504824
0.0381367
0.0255558
0.0128174
-3.77083e-009
0.176235
0.175692
0.174066
0.171367
0.167611
0.162821
0.157028
0.150266
0.142578
0.134012
0.124618
0.114457
0.103589
0.0920836
0.0800099
0.067443
0.0544603
0.0411417
0.0275696
0.0138274
-4.06089e-009
0.189232
0.18865
0.186904
0.184005
0.179972
0.17483
0.168609
0.161349
0.153094
0.143895
0.133809
0.122898
0.111229
0.098875
0.0859109
0.0724171
0.0584768
0.044176
0.0296029
0.0148472
-4.35096e-009
0.202383
0.20176
0.199893
0.196793
0.19248
0.18698
0.180327
0.172563
0.163734
0.153896
0.143109
0.13144
0.11896
0.105747
0.0918818
0.0774502
0.062541
0.0472463
0.0316603
0.0158791
-4.64102e-009
0.21572
0.215056
0.213066
0.209762
0.205165
0.199302
0.192211
0.183935
0.174524
0.164038
0.15254
0.140102
0.1268
0.112716
0.0979369
0.0825542
0.0666626
0.0503599
0.0337468
0.0169256
-4.93108e-009
0.229276
0.228571
0.226456
0.222944
0.218058
0.211827
0.20429
0.195494
0.185492
0.174347
0.162126
0.148906
0.134768
0.119799
0.104092
0.0877424
0.070852
0.0535248
0.0358676
0.0179893
-5.22115e-009
0.243089
0.242341
0.240099
0.236376
0.231195
0.224589
0.216598
0.207272
0.196668
0.184851
0.171894
0.157878
0.142888
0.127017
0.110363
0.0930287
0.0751207
0.0567496
0.0380286
0.0190731
-5.51121e-009
0.257197
0.256406
0.254034
0.250095
0.244614
0.237624
0.22917
0.219302
0.208082
0.19558
0.181871
0.167041
0.151181
0.134389
0.116769
0.0984281
0.0794807
0.0600433
0.0402357
0.0201801
-5.80128e-009
0.271642
0.270807
0.268302
0.264142
0.258353
0.250971
0.242041
0.23162
0.21977
0.206565
0.192086
0.176423
0.159673
0.141937
0.123327
0.103957
0.0839449
0.0634158
0.0424957
0.0213135
-6.09134e-009
0.286469
0.285589
0.282947
0.278559
0.272455
0.26467
0.255253
0.244262
0.231766
0.21784
0.202571
0.186053
0.168388
0.149685
0.130059
0.109631
0.088527
0.0668773
0.0448153
0.0224769
-6.3814e-009
0.301724
0.300797
0.298015
0.293394
0.286964
0.278765
0.268847
0.257271
0.244108
0.229441
0.213359
0.195962
0.177356
0.157657
0.136985
0.115469
0.0932416
0.0704389
0.0472019
0.0236739
-6.67147e-009
0.317458
0.316484
0.313556
0.308695
0.30193
0.293303
0.282867
0.270688
0.256839
0.241407
0.224486
0.206181
0.186605
0.165879
0.144129
0.121491
0.0981043
0.0741124
0.0496636
0.0249086
-6.96153e-009
0.333727
0.332702
0.329625
0.324515
0.317403
0.308334
0.297364
0.28456
0.270002
0.253779
0.235991
0.216748
0.196169
0.17438
0.151516
0.127718
0.103132
0.0779106
0.0522088
0.0261851
-7.25159e-009
0.350588
0.349512
0.346279
0.340911
0.33344
0.323913
0.312388
0.298938
0.283644
0.266601
0.247915
0.227699
0.20608
0.183191
0.159171
0.134171
0.108343
0.0818471
0.0548467
0.0275081
-7.54166e-009
0.368104
0.366975
0.363581
0.357945
0.350101
0.340098
0.327997
0.313875
0.297817
0.279922
0.260302
0.239077
0.216377
0.192344
0.167125
0.140875
0.113756
0.0859367
0.0575872
0.0288826
-7.83172e-009
0.386344
0.385159
0.381597
0.375682
0.367449
0.35695
0.344251
0.329428
0.312574
0.293793
0.273201
0.250924
0.227099
0.201875
0.175406
0.147855
0.119393
0.0901951
0.0604408
0.0303138
-8.12179e-009
0.405375
0.404132
0.400396
0.394189
0.385551
0.374535
0.36121
0.345657
0.327973
0.308267
0.28666
0.263285
0.238287
0.21182
0.184047
0.155139
0.125275
0.0946384
0.0634183
0.0318072
-8.41185e-009
0.425267
0.423964
0.420044
0.413533
0.404471
0.392914
0.378935
0.362619
0.344067
0.323394
0.300727
0.276205
0.249981
0.222215
0.193079
0.162752
0.131423
0.0992825
0.0665304
0.033368
-8.70191e-009
0.44608
0.444713
0.440602
0.433772
0.424266
0.412144
0.397481
0.380367
0.360907
0.339222
0.315445
0.289723
0.262215
0.23309
0.202528
0.170718
0.137855
0.104142
0.0697865
0.0350011
-8.99198e-009
0.467852
0.466419
0.462107
0.454944
0.444975
0.432261
0.416882
0.398932
0.378523
0.355779
0.330841
0.303864
0.275013
0.244467
0.212414
0.17905
0.144583
0.109225
0.0731927
0.0367095
-9.28204e-009
0.490582
0.48908
0.484559
0.477048
0.466595
0.453263
0.437137
0.418315
0.396913
0.373065
0.346916
0.318628
0.288375
0.256345
0.222734
0.187749
0.151608
0.114531
0.0767488
0.038493
-9.57211e-009
0.514201
0.512626
0.507887
0.500015
0.489058
0.475085
0.458182
0.438454
0.416022
0.391025
0.363617
0.333967
0.302258
0.268686
0.233457
0.196788
0.158907
0.120045
0.0804437
0.0403462
-9.86217e-009
0.538542
0.536892
0.53193
0.523685
0.512209
0.497575
0.479871
0.459209
0.435715
0.409535
0.38083
0.349776
0.316566
0.281404
0.244508
0.206104
0.166429
0.125728
0.0842516
0.0422561
-1.01522e-008
0.563347
0.561621
0.55643
0.547806
0.535801
0.520492
0.501973
0.480359
0.455783
0.428397
0.39837
0.365886
0.331146
0.294365
0.255769
0.215596
0.174094
0.131518
0.088132
0.0442023
-1.04423e-008
0.588319
0.586517
0.581095
0.572088
0.559552
0.543564
0.524224
0.501652
0.475986
0.447386
0.416028
0.382104
0.345825
0.307413
0.267106
0.225153
0.181811
0.137348
0.0920385
0.0461616
-1.07324e-008
0.613247
0.611368
0.605717
0.596328
0.58326
0.566594
0.546435
0.522906
0.496153
0.466341
0.433654
0.398293
0.360477
0.320438
0.278423
0.234692
0.189514
0.143167
0.0959381
0.0481174
-1.10224e-008
0.63819
0.636233
0.630352
0.620581
0.606981
0.589638
0.568658
0.544172
0.516331
0.485307
0.45129
0.414491
0.375137
0.33347
0.289746
0.244237
0.197221
0.14899
0.0998398
0.0500743
-1.13125e-008
0.664598
0.66256
0.656434
0.646259
0.632097
0.614036
0.592188
0.566689
0.537696
0.505388
0.469963
0.431642
0.390659
0.347268
0.301735
0.254343
0.205382
0.155155
0.103971
0.0521462
-1.16026e-008
0.670906
0.668848
0.662665
0.652393
0.638096
0.619863
0.597808
0.572067
0.542799
0.510184
0.474424
0.435738
0.394367
0.350563
0.304599
0.256756
0.207331
0.156627
0.104958
0.0526411
-1.18926e-008
0.677076
0.674999
0.668758
0.658392
0.643964
0.625564
0.603306
0.577328
0.54779
0.514875
0.478786
0.439745
0.397993
0.353787
0.3074
0.259117
0.209237
0.158067
0.105923
0.0531251
-1.21827e-008
0.683255
0.68116
0.674862
0.664401
0.649841
0.631273
0.608812
0.582597
0.552789
0.519574
0.483156
0.443758
0.401625
0.357016
0.310205
0.261482
0.211147
0.15951
0.106889
0.05361
-1.24727e-008
0.689474
0.687359
0.681004
0.670448
0.655755
0.637018
0.614353
0.587899
0.55782
0.524303
0.487553
0.447797
0.40528
0.360265
0.313028
0.263862
0.213069
0.160962
0.107862
0.0540979
-1.27628e-008
0.695743
0.693609
0.687196
0.676543
0.661717
0.64281
0.619938
0.593244
0.562892
0.52907
0.491985
0.451868
0.408965
0.36354
0.315874
0.266261
0.215006
0.162425
0.108843
0.0545897
-1.30529e-008
0.702066
0.699913
0.693441
0.682692
0.667731
0.648652
0.625572
0.598635
0.568007
0.533878
0.496457
0.455975
0.412681
0.366844
0.318745
0.26868
0.21696
0.163901
0.109832
0.0550858
-1.33429e-008
0.708446
0.706273
0.699743
0.688895
0.673798
0.654546
0.631256
0.604075
0.573169
0.538729
0.500968
0.460118
0.416431
0.370177
0.321641
0.271122
0.218931
0.16539
0.11083
0.0555864
-1.3633e-008
0.714882
0.71269
0.7061
0.695154
0.67992
0.660492
0.636991
0.609563
0.578376
0.543623
0.505519
0.464298
0.420215
0.373541
0.324563
0.273585
0.22092
0.166893
0.111837
0.0560914
-1.39231e-008
0.721376
0.719164
0.712514
0.701468
0.686096
0.666491
0.642777
0.615099
0.583629
0.548561
0.510111
0.468515
0.424032
0.376933
0.327511
0.27607
0.222927
0.168409
0.112853
0.0566009
-1.42131e-008
0.727926
0.725693
0.718983
0.707837
0.692325
0.672542
0.648613
0.620684
0.588928
0.553541
0.514742
0.472769
0.427881
0.380356
0.330485
0.278576
0.224951
0.169938
0.113877
0.0571148
-1.45032e-008
0.734531
0.732278
0.725507
0.714259
0.698606
0.678644
0.654498
0.626315
0.594272
0.558564
0.519412
0.477059
0.431764
0.383807
0.333483
0.281104
0.226992
0.17148
0.114911
0.057633
-1.47933e-008
0.741189
0.738916
0.732083
0.720734
0.704939
0.684796
0.660431
0.631993
0.599659
0.563627
0.524121
0.481383
0.435678
0.387286
0.336506
0.283652
0.229049
0.173034
0.115952
0.0581554
-1.50833e-008
0.747901
0.745607
0.738712
0.72726
0.711321
0.690996
0.66641
0.637715
0.605088
0.568731
0.528867
0.485742
0.439622
0.390793
0.339553
0.286221
0.231123
0.174601
0.117002
0.058682
-1.53734e-008
0.754664
0.752349
0.745392
0.733836
0.717753
0.697244
0.672436
0.643482
0.61056
0.573873
0.533649
0.490134
0.443598
0.394326
0.342624
0.288809
0.233213
0.17618
0.11806
0.0592126
-1.56634e-008
0.761477
0.759141
0.75212
0.74046
0.724232
0.703538
0.678506
0.64929
0.616071
0.579054
0.538466
0.494559
0.447602
0.397886
0.345717
0.291416
0.235318
0.17777
0.119126
0.0597471
-1.59535e-008
0.768338
0.765981
0.758897
0.747131
0.730757
0.709877
0.684619
0.65514
0.621622
0.584271
0.543318
0.499015
0.451635
0.401471
0.348831
0.294041
0.237439
0.179372
0.120199
0.0602854
-1.62436e-008
0.775247
0.772868
0.76572
0.753848
0.737327
0.716259
0.690775
0.661031
0.627211
0.589524
0.548203
0.503501
0.455696
0.40508
0.351968
0.296685
0.239573
0.180985
0.12128
0.0608274
-1.65336e-008
0.782201
0.7798
0.772588
0.76061
0.743941
0.722684
0.69697
0.66696
0.632837
0.594812
0.55312
0.508017
0.459783
0.408714
0.355125
0.299346
0.241722
0.182608
0.122368
0.061373
-1.68237e-008
0.789199
0.786776
0.7795
0.767414
0.750596
0.729149
0.703206
0.672927
0.638498
0.600133
0.558068
0.512562
0.463896
0.41237
0.358302
0.302024
0.243885
0.184242
0.123462
0.0619221
-1.71138e-008
0.796241
0.793796
0.786455
0.774261
0.757293
0.735655
0.70948
0.678931
0.644195
0.605488
0.563048
0.517136
0.468036
0.41605
0.361499
0.304719
0.246061
0.185885
0.124564
0.0624746
-1.74038e-008
0.803327
0.80086
0.793453
0.781151
0.764032
0.742201
0.715794
0.684973
0.649928
0.610876
0.568058
0.521738
0.472201
0.419752
0.364716
0.307431
0.248251
0.18754
0.125673
0.0630305
-1.76939e-008
0.810461
0.807972
0.800498
0.788088
0.770816
0.748792
0.72215
0.691055
0.655699
0.616301
0.573103
0.526371
0.476394
0.42348
0.367955
0.310161
0.250455
0.189205
0.126788
0.0635902
-1.7984e-008
0.817652
0.81514
0.807601
0.79508
0.777655
0.755435
0.728557
0.697186
0.661517
0.621769
0.578187
0.531041
0.480621
0.427237
0.371219
0.312913
0.252677
0.190884
0.127913
0.0641544
-1.8274e-008
0.824925
0.82239
0.814783
0.802151
0.784571
0.762154
0.735036
0.703387
0.6674
0.627299
0.58333
0.535764
0.484895
0.431037
0.374521
0.315696
0.254924
0.192581
0.129051
0.064725
-1.85641e-008
0.832332
0.829774
0.822098
0.809352
0.791615
0.768996
0.741635
0.709701
0.673392
0.63293
0.588566
0.540574
0.489248
0.434906
0.377883
0.31853
0.257213
0.19431
0.13021
0.0653061
-1.88541e-008
0.839976
0.837393
0.829647
0.816783
0.798883
0.776057
0.748445
0.716218
0.679575
0.638742
0.593971
0.545537
0.49374
0.4389
0.381353
0.321455
0.259575
0.196094
0.131405
0.0659057
-1.91442e-008
0.848038
0.84543
0.837608
0.824621
0.806549
0.783503
0.755626
0.72309
0.686095
0.64487
0.599669
0.550771
0.498478
0.443111
0.385012
0.324539
0.262065
0.197976
0.132666
0.066538
-1.94343e-008
0.856771
0.854135
0.846232
0.83311
0.814851
0.791568
0.763404
0.730533
0.693157
0.651508
0.605842
0.55644
0.503608
0.447671
0.388974
0.327879
0.264763
0.200014
0.134031
0.0672229
-1.97243e-008
0.866416
0.863749
0.855755
0.842485
0.82402
0.800475
0.771993
0.738752
0.700956
0.658838
0.612658
0.562701
0.509274
0.452708
0.393351
0.331568
0.267741
0.202264
0.135539
0.0679792
-2.00144e-008
0.877043
0.874341
0.866249
0.852815
0.834123
0.810288
0.781458
0.747809
0.709549
0.666915
0.620169
0.569599
0.515518
0.458258
0.398173
0.335633
0.271024
0.204744
0.137201
0.0688126
-2.03045e-008
0.888481
0.885743
0.877544
0.863935
0.844999
0.820853
0.791646
0.757558
0.7188
0.67561
0.628254
0.577025
0.522239
0.464232
0.403364
0.340009
0.274557
0.207413
0.13899
0.0697097
-2.05945e-008
0.900445
0.89767
0.88936
0.875567
0.856376
0.831904
0.802304
0.767757
0.728477
0.684705
0.636712
0.584794
0.52927
0.470482
0.408795
0.344586
0.278254
0.210205
0.140861
0.0706483
-2.08846e-008
0.912695
0.909882
0.901458
0.887478
0.868025
0.843221
0.813218
0.778201
0.738386
0.694019
0.645373
0.592749
0.536469
0.476882
0.414355
0.349274
0.282039
0.213065
0.142777
0.0716093
-2.11747e-008
0.925083
0.922232
0.913694
0.899523
0.879807
0.854666
0.824256
0.788763
0.748408
0.703439
0.654133
0.600794
0.543751
0.483355
0.419979
0.354014
0.285867
0.215956
0.144715
0.0725812
-2.14647e-008
0.937535
0.934645
0.925992
0.911631
0.891649
0.866169
0.83535
0.79938
0.758482
0.712907
0.662937
0.60888
0.551069
0.489861
0.425632
0.358779
0.289714
0.218863
0.146663
0.0735581
-2.17548e-008
0.950014
0.947086
0.938318
0.923765
0.903517
0.877699
0.846469
0.810021
0.768578
0.722397
0.671762
0.616985
0.558405
0.496381
0.431298
0.363555
0.293571
0.221776
0.148615
0.0745373
-2.20448e-008
0.962506
0.959539
0.950656
0.935912
0.915397
0.889239
0.857599
0.820671
0.778684
0.731895
0.680594
0.625098
0.565747
0.502908
0.436969
0.368335
0.297431
0.224693
0.150569
0.0755173
-2.23349e-008
0.975002
0.971997
0.962998
0.948063
0.927282
0.900785
0.868733
0.831326
0.788793
0.741398
0.689431
0.633213
0.573092
0.509437
0.442642
0.373117
0.301292
0.22761
0.152524
0.0764978
-2.2625e-008
0.987501
0.984457
0.975343
0.960216
0.939169
0.912332
0.87987
0.841983
0.798905
0.750901
0.698269
0.64133
0.580438
0.515968
0.448316
0.3779
0.305155
0.230527
0.154479
0.0774784
-2.2915e-008
1
0.996917
0.987688
0.97237
0.951057
0.92388
0.891007
0.85264
0.809017
0.760406
0.707107
0.649448
0.587785
0.522499
0.45399
0.382683
0.309017
0.233445
0.156434
0.0784591
-2.32051e-008
0
0.000784591
0.00156434
0.00233445
0.00309017
0.00382683
0.00453991
0.00522499
0.00587785
0.00649448
0.00707107
0.00760406
0.00809017
0.0085264
0.00891007
0.0092388
0.00951057
0.0097237
0.00987688
0.00996917
0.01
0
0.000980814
0.00195558
0.00291829
0.00386301
0.00478391
0.00567532
0.00653173
0.00734788
0.00811872
0.00883951
0.0095058
0.0101135
0.0106588
0.0111384
0.0115494
0.0118891
0.0121555
0.012347
0.0124624
0.012501
0
0.00196179
0.00391149
0.00583707
0.00772666
0.00956861
0.0113516
0.0130645
0.014697
0.0162388
0.0176805
0.0190132
0.0202286
0.0213194
0.0222787
0.0231007
0.0237802
0.0243131
0.0246961
0.0249269
0.025004
0
0.00294282
0.00586751
0.00875601
0.0115905
0.0143536
0.0170282
0.0195977
0.0220465
0.0243593
0.026522
0.0285211
0.0303444
0.0319806
0.0334196
0.0346526
0.035672
0.0364714
0.037046
0.0373921
0.0375077
0
0.00392403
0.00782386
0.0116755
0.0154551
0.0191394
0.0227057
0.0261321
0.0293973
0.0324813
0.035365
0.0380307
0.0404619
0.0426437
0.0445625
0.0462066
0.0475658
0.0486318
0.0493979
0.0498595
0.0500137
0
0.00490553
0.00978082
0.0145958
0.0193208
0.0239267
0.028385
0.0326684
0.0367503
0.0406057
0.0442107
0.0475432
0.0505825
0.05331
0.0557087
0.0577641
0.0594633
0.0607959
0.0617536
0.0623306
0.0625234
0
0.00588752
0.0117387
0.0175176
0.0231884
0.0287163
0.0340671
0.0392079
0.044107
0.0487341
0.0530608
0.0570603
0.0607081
0.0639815
0.0668605
0.0693273
0.0713666
0.072966
0.0741154
0.074808
0.0750393
0
0.00687027
0.0136982
0.0204416
0.027059
0.0335096
0.0397536
0.0457525
0.0514693
0.0568688
0.0619177
0.0665849
0.0708415
0.0746613
0.0780209
0.0808994
0.0832791
0.0851454
0.0864868
0.0872949
0.0875649
0
0.00785418
0.0156599
0.0233691
0.0309342
0.0383086
0.0454468
0.0523048
0.0588403
0.0650131
0.070785
0.0761205
0.0809868
0.0853537
0.0891943
0.0924851
0.0952056
0.0973392
0.0988727
0.0997965
0.100105
0
0.00883978
0.017625
0.0263016
0.0348161
0.0431159
0.0511498
0.0588684
0.0662241
0.0731714
0.0796677
0.0856727
0.0911496
0.0960645
0.100387
0.104091
0.107153
0.109554
0.11128
0.11232
0.112667
0
0.00982784
0.0195951
0.0292414
0.0387076
0.047935
0.0568669
0.0654483
0.0736261
0.08135
0.0885723
0.0952485
0.101338
0.106802
0.111608
0.115725
0.119129
0.121799
0.123718
0.124874
0.12526
0
0.0108193
0.0215718
0.0321914
0.0426124
0.0527708
0.0626038
0.0720508
0.0810536
0.0895566
0.0975076
0.104857
0.111561
0.117576
0.122867
0.1274
0.131147
0.134086
0.136199
0.137471
0.137896
0
0.0118154
0.0235578
0.035155
0.0465355
0.057629
0.0683673
0.078684
0.0885156
0.0978015
0.106484
0.114511
0.121831
0.128401
0.134178
0.139129
0.143221
0.146431
0.148738
0.150127
0.150592
0
0.0128175
0.025556
0.0381368
0.0504825
0.062517
0.074166
0.0853578
0.0960233
0.106097
0.115516
0.124223
0.132165
0.139291
0.145559
0.150929
0.155369
0.158851
0.161353
0.162861
0.163364
0
0.0138276
0.0275698
0.041142
0.0544605
0.0674432
0.0800101
0.0920837
0.10359
0.114457
0.124618
0.134012
0.142579
0.150267
0.157028
0.162822
0.167611
0.171368
0.174067
0.175694
0.176237
0
0.0148474
0.0296032
0.0441763
0.0584771
0.0724173
0.0859111
0.0988752
0.11123
0.122898
0.133809
0.143896
0.153094
0.161349
0.16861
0.17483
0.179973
0.184006
0.186905
0.188652
0.189235
0
0.0158794
0.0316607
0.0472467
0.0625414
0.0774505
0.091882
0.105747
0.11896
0.13144
0.143109
0.153896
0.163735
0.172563
0.180328
0.186981
0.192482
0.196795
0.199895
0.201763
0.202387
0
0.0169259
0.0337473
0.0503604
0.066663
0.0825546
0.0979372
0.112716
0.1268
0.140102
0.15254
0.164038
0.174525
0.183936
0.192212
0.199304
0.205166
0.209764
0.213069
0.21506
0.215724
0
0.0179897
0.0358682
0.0535255
0.0708526
0.0877429
0.104092
0.1198
0.134769
0.148907
0.162127
0.174347
0.185493
0.195495
0.204292
0.211829
0.21806
0.222947
0.226459
0.228575
0.229282
0
0.0190736
0.0380293
0.0567504
0.0751215
0.0930294
0.110364
0.127018
0.142888
0.157878
0.171895
0.184852
0.196669
0.207273
0.2166
0.224591
0.231198
0.236379
0.240103
0.242346
0.243096
0
0.0201807
0.0402367
0.0600444
0.0794817
0.0984289
0.116769
0.13439
0.151182
0.167042
0.181872
0.19558
0.208083
0.219303
0.229171
0.237627
0.244617
0.250098
0.254038
0.256412
0.257205
0
0.0213143
0.0424968
0.0634171
0.0839461
0.103958
0.123328
0.141938
0.159673
0.176424
0.192087
0.206566
0.219771
0.231621
0.242043
0.250973
0.258356
0.264146
0.268307
0.270814
0.271651
0
0.0224778
0.0448166
0.0668788
0.0885285
0.109632
0.13006
0.149686
0.168389
0.186054
0.202572
0.217841
0.231767
0.244264
0.255255
0.264673
0.272458
0.278564
0.282952
0.285596
0.286479
0
0.023675
0.0472035
0.0704407
0.0932433
0.115471
0.136987
0.157658
0.177357
0.195962
0.21336
0.229442
0.24411
0.257272
0.268849
0.278768
0.286968
0.293399
0.298021
0.300806
0.301736
0
0.0249097
0.0496654
0.0741145
0.0981063
0.121493
0.144131
0.16588
0.186606
0.206182
0.224487
0.241408
0.256841
0.27069
0.28287
0.293306
0.301934
0.3087
0.313564
0.316494
0.317472
0
0.0261864
0.0522109
0.077913
0.103134
0.12772
0.151517
0.174381
0.19617
0.216749
0.235992
0.25378
0.270003
0.284562
0.297367
0.308338
0.317408
0.324521
0.329633
0.332713
0.333742
0
0.0275096
0.0548491
0.0818498
0.108346
0.134173
0.159173
0.183192
0.206081
0.2277
0.247916
0.266602
0.283646
0.29894
0.312391
0.323917
0.333445
0.340918
0.346289
0.349524
0.350605
0
0.0288842
0.0575898
0.0859398
0.113759
0.140877
0.167127
0.192346
0.216379
0.239078
0.260303
0.279924
0.297818
0.313877
0.328001
0.340102
0.350106
0.357952
0.363591
0.366989
0.368124
0
0.0303156
0.0604437
0.0901985
0.119397
0.147858
0.175408
0.201877
0.227101
0.250925
0.273202
0.293795
0.312576
0.32943
0.344254
0.356955
0.367455
0.37569
0.381608
0.385174
0.386365
0
0.031809
0.0634214
0.0946421
0.125279
0.155143
0.18405
0.211822
0.238289
0.263286
0.286661
0.308268
0.327974
0.345659
0.361213
0.374539
0.385557
0.394197
0.400407
0.404149
0.405399
0
0.03337
0.0665338
0.0992866
0.131427
0.162756
0.193082
0.222217
0.249982
0.276206
0.300728
0.323395
0.344069
0.362622
0.378938
0.392919
0.404477
0.413542
0.420056
0.423981
0.425292
0
0.0350032
0.0697901
0.104146
0.137859
0.170721
0.202531
0.233092
0.262216
0.289724
0.315446
0.339223
0.360908
0.380369
0.397484
0.412149
0.424273
0.433781
0.440615
0.444732
0.446107
0
0.0367116
0.0731964
0.109229
0.144588
0.179054
0.212417
0.244469
0.275015
0.303865
0.330842
0.35578
0.378524
0.398934
0.416885
0.432266
0.444981
0.454953
0.462121
0.466439
0.467881
0
0.0384951
0.0767526
0.114536
0.151613
0.187754
0.222737
0.256347
0.288377
0.318629
0.346916
0.373065
0.396914
0.418317
0.43714
0.453267
0.466601
0.477057
0.484573
0.489101
0.490613
0
0.0403481
0.0804474
0.12005
0.158911
0.196792
0.23346
0.268688
0.30226
0.333968
0.363618
0.391026
0.416023
0.438455
0.458185
0.475089
0.489064
0.500024
0.507902
0.512647
0.514233
0
0.0422578
0.0842551
0.125732
0.166433
0.206108
0.244511
0.281407
0.316568
0.349777
0.38083
0.409536
0.435716
0.45921
0.479874
0.497578
0.512215
0.523694
0.531944
0.536914
0.538575
0
0.0442036
0.0881351
0.131523
0.174098
0.2156
0.255772
0.294367
0.331148
0.365887
0.39837
0.428398
0.455784
0.48036
0.501975
0.520495
0.535806
0.547814
0.556444
0.561643
0.56338
0
0.0461625
0.0920409
0.137352
0.181814
0.225156
0.267109
0.307415
0.345826
0.382105
0.416028
0.447387
0.475987
0.501653
0.524226
0.543566
0.559556
0.572096
0.581109
0.586538
0.588352
0
0.0481176
0.0959395
0.143169
0.189517
0.234695
0.278425
0.320439
0.360478
0.398294
0.433654
0.466342
0.496154
0.522907
0.546436
0.566596
0.583264
0.596335
0.605729
0.611389
0.61328
0
0.0500739
0.0998392
0.148991
0.197223
0.244239
0.289748
0.333471
0.375138
0.414492
0.451291
0.485307
0.516332
0.544173
0.568659
0.58964
0.606985
0.620587
0.630364
0.636254
0.638221
0
0.0521442
0.103969
0.155154
0.205383
0.254344
0.301737
0.347269
0.39066
0.431642
0.469964
0.505388
0.537696
0.566689
0.592189
0.614037
0.6321
0.646265
0.656446
0.66258
0.664629
0
0.0526394
0.104955
0.156626
0.207331
0.256757
0.3046
0.350565
0.394368
0.435739
0.474424
0.510184
0.542799
0.572068
0.597809
0.619865
0.638099
0.652399
0.662676
0.668868
0.670937
0
0.0531235
0.10592
0.158065
0.209236
0.259117
0.3074
0.353788
0.397994
0.439746
0.478787
0.514876
0.547791
0.577328
0.603306
0.625565
0.643966
0.658398
0.66877
0.675019
0.677106
0
0.053608
0.106886
0.159506
0.211144
0.261481
0.310205
0.357016
0.401626
0.443759
0.483156
0.519575
0.55279
0.582597
0.608812
0.631274
0.649843
0.664406
0.674873
0.681179
0.683286
0
0.0540956
0.107858
0.160957
0.213065
0.26386
0.313028
0.360265
0.405281
0.447798
0.487553
0.524303
0.557821
0.587899
0.614353
0.637019
0.655757
0.670453
0.681015
0.687379
0.689504
0
0.054587
0.108838
0.162419
0.215001
0.266258
0.315873
0.36354
0.408965
0.451868
0.491986
0.52907
0.562892
0.593244
0.619938
0.64281
0.661719
0.676548
0.687207
0.693628
0.695773
0
0.0550826
0.109827
0.163895
0.216954
0.268677
0.318743
0.366843
0.412682
0.455975
0.496457
0.533878
0.568008
0.598635
0.625572
0.648652
0.667733
0.682697
0.693452
0.699931
0.702096
0
0.0555827
0.110824
0.165384
0.218925
0.271118
0.321639
0.370177
0.416431
0.460118
0.500968
0.538729
0.573169
0.604075
0.631256
0.654546
0.6738
0.6889
0.699753
0.706291
0.708475
0
0.0560872
0.11183
0.166886
0.220914
0.273581
0.324561
0.373539
0.420214
0.464298
0.505519
0.543624
0.578376
0.609563
0.636991
0.660493
0.679922
0.695159
0.70611
0.712708
0.714912
0
0.0565962
0.112846
0.168401
0.22292
0.276065
0.327509
0.376932
0.424031
0.468515
0.510111
0.548561
0.583629
0.615099
0.642777
0.666492
0.686098
0.701473
0.712524
0.719182
0.721406
0
0.0571096
0.11387
0.16993
0.224944
0.278572
0.330482
0.380354
0.427881
0.472769
0.514742
0.553542
0.588928
0.620684
0.648613
0.672543
0.692327
0.707842
0.718993
0.725711
0.727955
0
0.0576274
0.114902
0.171471
0.226985
0.281099
0.33348
0.383805
0.431763
0.477058
0.519412
0.558564
0.594272
0.626315
0.654498
0.678645
0.698608
0.714264
0.725516
0.732296
0.73456
0
0.0581494
0.115944
0.173026
0.229042
0.283647
0.336503
0.387284
0.435677
0.481383
0.524121
0.563627
0.599659
0.631993
0.660431
0.684797
0.704941
0.720739
0.732093
0.738934
0.741219
0
0.0586756
0.116993
0.174592
0.231116
0.286216
0.33955
0.390791
0.439622
0.485742
0.528867
0.568731
0.605088
0.637716
0.666411
0.690998
0.711324
0.727265
0.738722
0.745625
0.74793
0
0.0592059
0.118051
0.176171
0.233206
0.288804
0.342621
0.394324
0.443597
0.490134
0.533649
0.573873
0.61056
0.643482
0.672437
0.697246
0.717756
0.733841
0.745402
0.752367
0.754693
0
0.0597401
0.119117
0.177761
0.235312
0.291411
0.345713
0.397884
0.447601
0.494558
0.538466
0.579054
0.616071
0.649291
0.678507
0.70354
0.724235
0.740466
0.752131
0.759159
0.761506
0
0.0602783
0.12019
0.179363
0.237432
0.294037
0.348828
0.401469
0.451634
0.499014
0.543318
0.584271
0.621622
0.655141
0.68462
0.709879
0.730761
0.747137
0.758907
0.765999
0.768367
0
0.0608203
0.121271
0.180976
0.239567
0.296681
0.351965
0.405079
0.455695
0.503501
0.548202
0.589524
0.627211
0.661031
0.690776
0.716261
0.737331
0.753855
0.765731
0.772886
0.775275
0
0.0613659
0.122359
0.1826
0.241716
0.299342
0.355122
0.408712
0.459782
0.508017
0.55312
0.594812
0.632837
0.66696
0.696972
0.722686
0.743945
0.760617
0.772599
0.779818
0.782229
0
0.061915
0.123454
0.184234
0.243879
0.30202
0.358299
0.412369
0.463895
0.512562
0.558068
0.600133
0.638499
0.672927
0.703207
0.729151
0.7506
0.767421
0.779511
0.786795
0.789228
0
0.0624677
0.124556
0.185878
0.246055
0.304715
0.361496
0.416048
0.468035
0.517135
0.563047
0.605488
0.644196
0.678932
0.709482
0.735657
0.757298
0.774269
0.786466
0.793815
0.79627
0
0.0630239
0.125664
0.187533
0.248245
0.307427
0.364713
0.419751
0.4722
0.521737
0.568058
0.610876
0.649929
0.684973
0.715795
0.742204
0.764037
0.781159
0.793465
0.800879
0.803356
0
0.0635839
0.126781
0.189198
0.25045
0.310157
0.367952
0.423478
0.476393
0.52637
0.573102
0.616301
0.6557
0.691056
0.722151
0.748795
0.770821
0.788096
0.800511
0.807991
0.810489
0
0.0641485
0.127906
0.190878
0.252672
0.312909
0.371217
0.427235
0.48062
0.53104
0.578187
0.621769
0.661517
0.697187
0.728559
0.755438
0.77766
0.795088
0.807614
0.81516
0.81768
0
0.0647195
0.129045
0.192576
0.25492
0.315693
0.374519
0.431035
0.484894
0.535764
0.58333
0.627299
0.667401
0.703388
0.735038
0.762157
0.784577
0.802159
0.814796
0.82241
0.824953
0
0.0653011
0.130204
0.194305
0.257209
0.318527
0.377881
0.434905
0.489247
0.540573
0.588566
0.63293
0.673392
0.709702
0.741637
0.768999
0.79162
0.809361
0.822111
0.829793
0.832358
0
0.0659015
0.1314
0.19609
0.259571
0.321452
0.381351
0.438898
0.49374
0.545537
0.59397
0.638742
0.679575
0.716219
0.748447
0.77606
0.798889
0.816792
0.82966
0.837412
0.840001
0
0.0665346
0.132662
0.197972
0.262062
0.324537
0.38501
0.443109
0.498477
0.550771
0.599669
0.64487
0.686096
0.723091
0.755628
0.783506
0.806554
0.824629
0.83762
0.845446
0.848061
0
0.0672204
0.134028
0.200011
0.26476
0.327877
0.388973
0.447671
0.503608
0.55644
0.605842
0.651508
0.693158
0.730533
0.763405
0.791571
0.814856
0.833117
0.846241
0.854149
0.85679
0
0.0679776
0.135537
0.202262
0.26774
0.331567
0.39335
0.452708
0.509274
0.562701
0.612658
0.658838
0.700956
0.738753
0.771994
0.800477
0.824023
0.84249
0.855762
0.863759
0.866429
0
0.0688117
0.1372
0.204742
0.271023
0.335632
0.398172
0.458258
0.515517
0.569599
0.620169
0.666915
0.709549
0.747809
0.781458
0.81029
0.834125
0.852818
0.866253
0.874347
0.877051
0
0.0697093
0.138989
0.207412
0.274557
0.340008
0.403364
0.464232
0.522238
0.577025
0.628254
0.67561
0.7188
0.757558
0.791646
0.820853
0.845
0.863936
0.877547
0.885746
0.888485
0
0.070648
0.140861
0.210205
0.278253
0.344586
0.408794
0.470482
0.52927
0.584794
0.636712
0.684705
0.728477
0.767758
0.802304
0.831905
0.856376
0.875568
0.889361
0.897672
0.900447
0
0.0716092
0.142777
0.213064
0.282038
0.349273
0.414355
0.476882
0.536469
0.592749
0.645373
0.694019
0.738386
0.778201
0.813218
0.843221
0.868025
0.887478
0.901459
0.909882
0.912696
0
0.0725812
0.144715
0.215956
0.285867
0.354014
0.419979
0.483355
0.543751
0.600794
0.654133
0.703439
0.748408
0.788764
0.824256
0.854666
0.879807
0.899524
0.913694
0.922232
0.925084
0
0.0735581
0.146663
0.218863
0.289714
0.358779
0.425632
0.489861