VARIABLES = X, Y, ux
ZONE N = 891, E = 800
ZONETYPE = FEQUADRILATERAL
DATAPACKING = BLOCK
varlocation=([3]=cellcentered)
0.01
0.00987688
0.00951057
0.00891007
0.00809017
0.00707107
0.00587785
0.0045399
0.00309017
0.00156434
-2.32051e-010
0.0125
0.0123461
0.0118882
0.0111376
0.0101127
0.00883883
0.00734732
0.00567488
0.00386271
0.00195543
-2.90064e-010
0.025
0.0246922
0.0237764
0.0222752
0.0202254
0.0176777
0.0146946
0.0113498
0.00772542
0.00391086
-5.80128e-010
0.0375
0.0370383
0.0356646
0.0334127
0.0303381
0.0265165
0.0220419
0.0170246
0.0115881
0.00586629
-8.70191e-010
0.05
0.0493844
0.0475528
0.0445503
0.0404508
0.0353553
0.0293893
0.0226995
0.0154508
0.00782172
-1.16026e-009
0.0625
0.0617305
0.059441
0.0556879
0.0505636
0.0441942
0.0367366
0.0283744
0.0193136
0.00977715
-1.45032e-009
0.075
0.0740766
0.0713292
0.0668255
0.0606763
0.053033
0.0440839
0.0340493
0.0231763
0.0117326
-1.74038e-009
0.0875
0.0864227
0.0832174
0.0779631
0.070789
0.0618718
0.0514312
0.0397242
0.027039
0.013688
-2.03045e-009
0.1
0.0987688
0.0951057
0.0891007
0.0809017
0.0707107
0.0587785
0.045399
0.0309017
0.0156434
-2.32051e-009
0.1125
0.111115
0.106994
0.100238
0.0910144
0.0795495
0.0661258
0.0510739
0.0347644
0.0175989
-2.61057e-009
0.125
0.123461
0.118882
0.111376
0.101127
0.0883883
0.0734732
0.0567488
0.0386271
0.0195543
-2.90064e-009
0.1375
0.135807
0.13077
0.122513
0.11124
0.0972272
0.0808205
0.0624237
0.0424898
0.0215097
-3.1907e-009
0.15
0.148153
0.142658
0.133651
0.121353
0.106066
0.0881678
0.0680986
0.0463525
0.0234652
-3.48077e-009
0.1625
0.160499
0.154547
0.144789
0.131465
0.114905
0.0955151
0.0737735
0.0502153
0.0254206
-3.77083e-009
0.175
0.172845
0.166435
0.155926
0.141578
0.123744
0.102862
0.0794483
0.054078
0.027376
-4.06089e-009
0.1875
0.185192
0.178323
0.167064
0.151691
0.132583
0.11021
0.0851232
0.0579407
0.0293315
-4.35096e-009
0.2
0.197538
0.190211
0.178201
0.161803
0.141421
0.117557
0.0907981
0.0618034
0.0312869
-4.64102e-009
0.2125
0.209884
0.2021
0.189339
0.171916
0.15026
0.124904
0.096473
0.0656661
0.0332423
-4.93108e-009
0.225
0.22223
0.213988
0.200476
0.182029
0.159099
0.132252
0.102148
0.0695288
0.0351977
-5.22115e-009
0.2375
0.234576
0.225876
0.211614
0.192142
0.167938
0.139599
0.107823
0.0733915
0.0371532
-5.51121e-009
0.25
0.246922
0.237764
0.222752
0.202254
0.176777
0.146946
0.113498
0.0772542
0.0391086
-5.80128e-009
0.2625
0.259268
0.249652
0.233889
0.212367
0.185616
0.154294
0.119173
0.081117
0.041064
-6.09134e-009
0.275
0.271614
0.261541
0.245027
0.22248
0.194454
0.161641
0.124847
0.0849797
0.0430195
-6.3814e-009
0.2875
0.28396
0.273429
0.256164
0.232592
0.203293
0.168988
0.130522
0.0888424
0.0449749
-6.67147e-009
0.3
0.296307
0.285317
0.267302
0.242705
0.212132
0.176336
0.136197
0.0927051
0.0469303
-6.96153e-009
0.3125
0.308653
0.297205
0.27844
0.252818
0.220971
0.183683
0.141872
0.0965678
0.0488858
-7.25159e-009
0.325
0.320999
0.309093
0.289577
0.262931
0.22981
0.19103
0.147547
0.100431
0.0508412
-7.54166e-009
0.3375
0.333345
0.320982
0.300715
0.273043
0.238649
0.198378
0.153222
0.104293
0.0527966
-7.83172e-009
0.35
0.345691
0.33287
0.311852
0.283156
0.247487
0.205725
0.158897
0.108156
0.0547521
-8.12179e-009
0.3625
0.358037
0.344758
0.32299
0.293269
0.256326
0.213072
0.164572
0.112019
0.0567075
-8.41185e-009
0.375
0.370383
0.356646
0.334127
0.303381
0.265165
0.220419
0.170246
0.115881
0.0586629
-8.70191e-009
0.3875
0.382729
0.368534
0.345265
0.313494
0.274004
0.227767
0.175921
0.119744
0.0606183
-8.99198e-009
0.4
0.395075
0.380423
0.356403
0.323607
0.282843
0.235114
0.181596
0.123607
0.0625738
-9.28204e-009
0.4125
0.407421
0.392311
0.36754
0.33372
0.291682
0.242461
0.187271
0.12747
0.0645292
-9.57211e-009
0.425
0.419768
0.404199
0.378678
0.343832
0.30052
0.249809
0.192946
0.131332
0.0664846
-9.86217e-009
0.4375
0.432114
0.416087
0.389815
0.353945
0.309359
0.257156
0.198621
0.135195
0.0684401
-1.01522e-008
0.45
0.44446
0.427975
0.400953
0.364058
0.318198
0.264503
0.204296
0.139058
0.0703955
-1.04423e-008
0.4625
0.456806
0.439864
0.412091
0.37417
0.327037
0.271851
0.209971
0.14292
0.0723509
-1.07324e-008
0.475
0.469152
0.451752
0.423228
0.384283
0.335876
0.279198
0.215645
0.146783
0.0743064
-1.10224e-008
0.4875
0.481498
0.46364
0.434366
0.394396
0.344715
0.286545
0.22132
0.150646
0.0762618
-1.13125e-008
0.5
0.493844
0.475528
0.445503
0.404508
0.353553
0.293893
0.226995
0.154508
0.0782172
-1.16026e-008
0.5125
0.50619
0.487416
0.456641
0.414621
0.362392
0.30124
0.23267
0.158371
0.0801727
-1.18926e-008
0.525
0.518536
0.499305
0.467778
0.424734
0.371231
0.308587
0.238345
0.162234
0.0821281
-1.21827e-008
0.5375
0.530882
0.511193
0.478916
0.434847
0.38007
0.315935
0.24402
0.166097
0.0840835
-1.24727e-008
0.55
0.543229
0.523081
0.490054
0.444959
0.388909
0.323282
0.249695
0.169959
0.0860389
-1.27628e-008
0.5625
0.555575
0.534969
0.501191
0.455072
0.397748
0.330629
0.25537
0.173822
0.0879944
-1.30529e-008
0.575
0.567921
0.546857
0.512329
0.465185
0.406586
0.337977
0.261045
0.177685
0.0899498
-1.33429e-008
0.5875
0.580267
0.558746
0.523466
0.475297
0.415425
0.345324
0.266719
0.181547
0.0919052
-1.3633e-008
0.6
0.592613
0.570634
0.534604
0.48541
0.424264
0.352671
0.272394
0.18541
0.0938607
-1.39231e-008
0.6125
0.604959
0.582522
0.545741
0.495523
0.433103
0.360018
0.278069
0.189273
0.0958161
-1.42131e-008
0.625
0.617305
0.59441
0.556879
0.505636
0.441942
0.367366
0.283744
0.193136
0.0977715
-1.45032e-008
0.6375
0.629651
0.606299
0.568017
0.515748
0.450781
0.374713
0.289419
0.196998
0.099727
-1.47933e-008
0.65
0.641997
0.618187
0.579154
0.525861
0.459619
0.38206
0.295094
0.200861
0.101682
-1.50833e-008
0.6625
0.654344
0.630075
0.590292
0.535974
0.468458
0.389408
0.300769
0.204724
0.103638
-1.53734e-008
0.675
0.66669
0.641963
0.601429
0.546086
0.477297
0.396755
0.306444
0.208586
0.105593
-1.56634e-008
0.6875
0.679036
0.653851
0.612567
0.556199
0.486136
0.404102
0.312118
0.212449
0.107549
-1.59535e-008
0.7
0.691382
0.66574
0.623705
0.566312
0.494975
0.41145
0.317793
0.216312
0.109504
-1.62436e-008
0.7125
0.703728
0.677628
0.634842
0.576425
0.503814
0.418797
0.323468
0.220175
0.11146
-1.65336e-008
0.725
0.716074
0.689516
0.64598
0.586537
0.512652
0.426144
0.329143
0.224037
0.113415
-1.68237e-008
0.7375
0.72842
0.701404
0.657117
0.59665
0.521491
0.433492
0.334818
0.2279
0.11537
-1.71138e-008
0.75
0.740766
0.713292
0.668255
0.606763
0.53033
0.440839
0.340493
0.231763
0.117326
-1.74038e-008
0.7625
0.753112
0.725181
0.679392
0.616875
0.539169
0.448186
0.346168
0.235625
0.119281
-1.76939e-008
0.775
0.765458
0.737069
0.69053
0.626988
0.548008
0.455534
0.351843
0.239488
0.121237
-1.7984e-008
0.7875
0.777805
0.748957
0.701668
0.637101
0.556847
0.462881
0.357518
0.243351
0.123192
-1.8274e-008
0.8
0.790151
0.760845
0.712805
0.647214
0.565685
0.470228
0.363192
0.247214
0.125148
-1.85641e-008
0.8125
0.802497
0.772733
0.723943
0.657326
0.574524
0.477576
0.368867
0.251076
0.127103
-1.88541e-008
0.825
0.814843
0.784622
0.73508
0.667439
0.583363
0.484923
0.374542
0.254939
0.129058
-1.91442e-008
0.8375
0.827189
0.79651
0.746218
0.677552
0.592202
0.49227
0.380217
0.258802
0.131014
-1.94343e-008
0.85
0.839535
0.808398
0.757356
0.687664
0.601041
0.499617
0.385892
0.262664
0.132969
-1.97243e-008
0.8625
0.851881
0.820286
0.768493
0.697777
0.60988
0.506965
0.391567
0.266527
0.134925
-2.00144e-008
0.875
0.864227
0.832174
0.779631
0.70789
0.618718
0.514312
0.397242
0.27039
0.13688
-2.03045e-008
0.8875
0.876573
0.844063
0.790768
0.718003
0.627557
0.521659
0.402917
0.274253
0.138836
-2.05945e-008
0.9
0.88892
0.855951
0.801906
0.728115
0.636396
0.529007
0.408591
0.278115
0.140791
-2.08846e-008
0.9125
0.901266
0.867839
0.813043
0.738228
0.645235
0.536354
0.414266
0.281978
0.142746
-2.11747e-008
0.925
0.913612
0.879727
0.824181
0.748341
0.654074
0.543701
0.419941
0.285841
0.144702
-2.14647e-008
0.9375
0.925958
0.891615
0.835319
0.758453
0.662913
0.551049
0.425616
0.289703
0.146657
-2.17548e-008
0.95
0.938304
0.903504
0.846456
0.768566
0.671751
0.558396
0.431291
0.293566
0.148613
-2.20448e-008
0.9625
0.95065
0.915392
0.857594
0.778679
0.68059
0.565743
0.436966
0.297429
0.150568
-2.23349e-008
0.975
0.962996
0.92728
0.868731
0.788792
0.689429
0.573091
0.442641
0.301292
0.152524
-2.2625e-008
0.9875
0.975342
0.939168
0.879869
0.798904
0.698268
0.580438
0.448316
0.305154
0.154479
-2.2915e-008
1
0.987688
0.951057
0.891007
0.809017
0.707107
0.587785
0.45399
0.309017
0.156434
-2.32051e-008
0
0.00156434
0.00309017
0.00453991
0.00587785
0.00707107
0.00809017
0.00891007
0.00951057
0.00987688
0.01
0
0.00195543
0.00386271
0.00567488
0.00734732
0.00883883
0.0101127
0.0111376
0.0118882
0.0123461
0.0125
0
0.00391086
0.00772542
0.0113498
0.0146946
0.0176777
0.0202254
0.0222752
0.0237764
0.0246922
0.025
0
0.00586629
0.0115881
0.0170246
0.0220419
0.0265165
0.0303381
0.0334127
0.0356646
0.0370383
0.0375
0
0.00782172
0.0154508
0.0226995
0.0293893
0.0353553
0.0404509
0.0445503
0.0475528
0.0493844
0.05
0
0.00977715
0.0193136
0.0283744
0.0367366
0.0441942
0.0505636
0.0556879
0.059441
0.0617305
0.0625
0
0.0117326
0.0231763
0.0340493
0.0440839
0.053033
0.0606763
0.0668255
0.0713292
0.0740766
0.075
0
0.013688
0.027039
0.0397242
0.0514312
0.0618718
0.070789
0.0779631
0.0832174
0.0864227
0.0875
0
0.0156434
0.0309017
0.0453991
0.0587785
0.0707107
0.0809017
0.0891007
0.0951057
0.0987688
0.1
0
0.0175989
0.0347644
0.0510739
0.0661258
0.0795495
0.0910144
0.100238
0.106994
0.111115
0.1125
0
0.0195543
0.0386271
0.0567488
0.0734732
0.0883883
0.101127
0.111376
0.118882
0.123461
0.125
0
0.0215097
0.0424898
0.0624237
0.0808205
0.0972272
0.11124
0.122513
0.13077
0.135807
0.1375
0
0.0234652
0.0463525
0.0680986
0.0881678
0.106066
0.121353
0.133651
0.142658
0.148153
0.15
0
0.0254206
0.0502153
0.0737735
0.0955151
0.114905
0.131465
0.144789
0.154547
0.160499
0.1625
0
0.027376
0.054078
0.0794483
0.102862
0.123744
0.141578
0.155926
0.166435
0.172845
0.175
0
0.0293315
0.0579407
0.0851232
0.11021
0.132583
0.151691
0.167064
0.178323
0.185192
0.1875
0
0.0312869
0.0618034
0.0907981
0.117557
0.141421
0.161803
0.178201
0.190211
0.197538
0.2
0
0.0332423
0.0656661
0.096473
0.124904
0.15026
0.171916
0.189339
0.2021
0.209884
0.2125
0
0.0351978
0.0695288
0.102148
0.132252
0.159099
0.182029
0.200476
0.213988
0.22223
0.225
0
0.0371532
0.0733915
0.107823
0.139599
0.167938
0.192142
0.211614
0.225876
0.234576
0.2375
0
0.0391086
0.0772542
0.113498
0.146946
0.176777
0.202254
0.222752
0.237764
0.246922
0.25
0
0.041064
0.081117
0.119173
0.154294
0.185616
0.212367
0.233889
0.249652
0.259268
0.2625
0
0.0430195
0.0849797
0.124847
0.161641
0.194454
0.22248
0.245027
0.261541
0.271614
0.275
0
0.0449749
0.0888424
0.130522
0.168988
0.203293
0.232592
0.256164
0.273429
0.28396
0.2875
0
0.0469303
0.0927051
0.136197
0.176336
0.212132
0.242705
0.267302
0.285317
0.296307
0.3
0
0.0488858
0.0965678
0.141872
0.183683
0.220971
0.252818
0.27844
0.297205
0.308653
0.3125
0
0.0508412
0.100431
0.147547
0.19103
0.22981
0.262931
0.289577
0.309093
0.320999
0.325
0
0.0527966
0.104293
0.153222
0.198378
0.238649
0.273043
0.300715
0.320982
0.333345
0.3375
0
0.0547521
0.108156
0.158897
0.205725
0.247487
0.283156
0.311852
0.33287
0.345691
0.35
0
0.0567075
0.112019
0.164572
0.213072
0.256326
0.293269
0.32299
0.344758
0.358037
0.3625
0
0.0586629
0.115881
0.170246
0.220419
0.265165
0.303381
0.334127
0.356646
0.370383
0.375
0
0.0606184
0.119744
0.175921
0.227767
0.274004
0.313494
0.345265
0.368534
0.382729
0.3875
0
0.0625738
0.123607
0.181596
0.235114
0.282843
0.323607
0.356403
0.380423
0.395075
0.4
0
0.0645292
0.12747
0.187271
0.242461
0.291682
0.33372
0.36754
0.392311
0.407421
0.4125
0
0.0664846
0.131332
0.192946
0.249809
0.30052
0.343832
0.378678
0.404199
0.419768
0.425
0
0.0684401
0.135195
0.198621
0.257156
0.309359
0.353945
0.389815
0.416087
0.432114
0.4375
0
0.0703955
0.139058
0.204296
0.264503
0.318198
0.364058
0.400953
0.427975
0.44446
0.45
0
0.0723509
0.14292
0.209971
0.271851
0.327037
0.37417
0.412091
0.439864
0.456806
0.4625
0
0.0743064
0.146783
0.215645
0.279198
0.335876
0.384283
0.423228
0.451752
0.469152
0.475
0
0.0762618
0.150646
0.22132
0.286545
0.344715
0.394396
0.434366
0.46364
0.481498
0.4875
0
0.0782172
0.154508
0.226995
0.293893
0.353553
0.404509
0.445503
0.475528
0.493844
0.5
0
0.0801727
0.158371
0.23267
0.30124
0.362392
0.414621
0.456641
0.487416
0.50619
0.5125
0
0.0821281
0.162234
0.238345
0.308587
0.371231
0.424734
0.467778
0.499305
0.518536
0.525
0
0.0840835
0.166097
0.24402
0.315935
0.38007
0.434847
0.478916
0.511193
0.530882
0.5375
0
0.086039
0.169959
0.249695
0.323282
0.388909
0.444959
0.490054
0.523081
0.543229
0.55
0
0.0879944
0.173822
0.25537
0.330629
0.397748
0.455072
0.501191
0.534969
0.555575
0.5625
0
0.0899498
0.177685
0.261045
0.337977
0.406586
0.465185
0.512329
0.546858
0.567921
0.575
0
0.0919052
0.181547
0.266719
0.345324
0.415425
0.475297
0.523466
0.558746
0.580267
0.5875
0
0.0938607
0.18541
0.272394
0.352671
0.424264
0.48541
0.534604
0.570634
0.592613
0.6
0
0.0958161
0.189273
0.278069
0.360018
0.433103
0.495523
0.545742
0.582522
0.604959
0.6125
0
0.0977715
0.193136
0.283744
0.367366
0.441942
0.505636
0.556879
0.59441
0.617305
0.625
0
0.099727
0.196998
0.289419
0.374713
0.450781
0.515748
0.568017
0.606299
0.629651
0.6375
0
0.101682
0.200861
0.295094
0.38206
0.459619
0.525861
0.579154
0.618187
0.641997
0.65
0
0.103638
0.204724
0.300769
0.389408
0.468458
0.535974
0.590292
0.630075
0.654344
0.6625
0
0.105593
0.208586
0.306444
0.396755
0.477297
0.546086
0.601429
0.641963
0.66669
0.675
0
0.107549
0.212449
0.312118
0.404102
0.486136
0.556199
0.612567
0.653851
0.679036
0.6875
0
0.109504
0.216312
0.317793
0.41145
0.494975
0.566312
0.623705
0.66574
0.691382
0.7
0
0.11146
0.220175
0.323468
0.418797
0.503814
0.576425
0.634842
0.677628
0.703728
0.7125
0
0.113415
0.224037
0.329143
0.426144
0.512652
0.586537
0.64598
0.689516
0.716074
0.725
0
0.11537
0.2279
0.334818
0.433492
0.521491
0.59665
0.657117
0.701404
0.72842
0.7375
0
0.117326
0.231763
0.340493
0.440839
0.53033
0.606763
0.668255
0.713292
0.740766
0.75
0
0.119281
0.235625
0.346168
0.448186
0.539169
0.616875
0.679392
0.725181
0.753112
0.7625
0
0.121237
0.239488
0.351843
0.455534
0.548008
0.626988
0.69053
0.737069
0.765458
0.775
0
0.123192
0.243351
0.357518
0.462881
0.556847
0.637101
0.701668
0.748957
0.777805
0.7875
0
0.125148
0.247214
0.363192
0.470228
0.565685
0.647214
0.712805
0.760845
0.790151
0.8
0
0.127103
0.251076
0.368867
0.477576
0.574524
0.657326
0.723943
0.772733
0.802497
0.8125
0
0.129058
0.254939
0.374542
0.484923
0.583363
0.667439
0.73508
0.784622
0.814843
0.825
0
0.131014
0.258802
0.380217
0.49227
0.592202
0.677552
0.746218
0.79651
0.827189
0.8375
0
0.132969
0.262664
0.385892
0.499617
0.601041
0.687664
0.757356
0.808398
0.839535
0.85
0
0.134925
0.266527
0.391567
0.506965
0.60988
0.697777
0.768493
0.820286
0.851881
0.8625
0
0.13688
0.27039
0.397242
0.514312
0.618718
0.70789
0.779631
0.832174
0.864227
0.875
0
0.138836
0.274253
0.402917
0.521659
0.627557
0.718003
0.790768
0.844063
0.876573
0.8875
0
0.140791
0.278115
0.408591
0.529007
0.636396
0.728115
0.801906
0.855951
0.88892
0.9
0
0.142746
0.281978
0.414266
0.536354
0.645235
0.738228
0.813043
0.867839
0.901266
0.9125
0
0.144702
0.285841
0.419941
0.543701
0.654074
0.748341
0.824181
0.879727
0.913612
0.925
0
0.146657
0.289703
0.425616
0.551049
0.662913
0.758453
0.835319
0.891615
0.925958
0.9375
0
0.148613
0.293566
0.431291
0.558396
0.671751
0.768566
0.846456
0.903504
0.938304
0.95
0
0.150568
0.297429
0.436966
0.565743
0.68059
0.778679
0.857594
0.915392
0.95065
0.9625
0
0.152524
0.301292
0.442641
0.573091
0.689429
0.788792
0.868731
0.92728
0.962996
0.975
0
0.154479
0.305154
0.448316
0.580438
0.698268
0.798904
0.879869
0.939168
0.975342
0.9875
0
0.156434
0.309017
0.453991
0.587785
0.707107
0.809017
0.891007
0.951057
0.987688
1
1.42307e-008
1.05399e-009
1.55835e-009
2.02477e-009
2.05323e-009
2.07995e-009
1.84616e-009
1.56754e-009
7.52782e-010
1.41157e-008
2.59186e-009
1.29463e-009
1.55121e-009
1.38695e-009
4.65541e-010
1.73344e-009
1.71881e-009
1.80984e-009
1.61072e-009
2.78498e-009
2.97284e-009
8.90787e-010
4.07558e-010
1.03108e-009
1.85979e-009
1.47947e-009
7.35122e-010
6.73315e-011
8.83051e-010
2.85948e-009
2.59585e-009
1.31489e-009
2.0003e-009
1.42486e-009
1.42645e-009
1.27266e-009
6.44931e-010
1.82192e-009
2.04572e-009
1.21314e-009
2.57185e-009
5.68681e-011
1.51918e-009
7.41752e-010
9.42079e-010
3.69556e-010
1.18904e-009
1.99058e-009
6.28666e-010
2.22944e-009
2.54318e-009
1.67549e-009
1.62797e-009
1.58505e-009
7.59833e-010
1.32707e-009
1.0595e-009
1.83324e-009
1.98964e-009
2.02336e-009
2.45925e-009
4.7308e-010
3.00167e-010
1.05195e-009
9.07744e-010
1.03966e-009
1.43864e-009
5.54632e-010
9.04497e-010
1.91302e-009
4.67706e-010
1.42834e-009
8.22747e-010
8.14462e-010
5.93227e-010
1.46839e-009
1.42246e-009
1.02701e-009
7.07604e-010
3.77197e-010
1.61708e-009
3.31466e-010
8.81944e-010
9.27946e-010
7.13759e-010
8.85417e-010
5.74718e-010
5.73374e-010
9.5146e-010
1.39056e-009
1.45798e-009
3.10769e-011
1.02542e-009
9.71102e-010
4.60713e-010
2.88024e-010
8.54074e-010
9.31863e-010
4.02677e-010
1.00389e-009
1.40411e-009
5.7466e-010
1.21289e-009
9.53725e-010
9.71046e-010
1.01085e-009
1.00031e-009
1.02334e-009
6.9026e-010
1.28902e-009
2.29639e-010
6.85988e-010
2.58007e-010
7.56264e-010
5.86533e-010
5.81225e-010
7.0383e-010
2.93753e-010
6.4711e-010
2.15455e-010
1.45651e-010
1.70881e-010
3.71494e-010
2.97482e-010
4.4787e-010
4.42906e-010
3.01559e-010
3.66344e-010
1.74712e-010
1.44963e-010
1.39505e-010
1.02946e-010
2.09806e-010
3.58356e-010
3.58139e-010
3.59826e-010
3.56476e-010
2.12572e-010
1.01132e-010
1.41547e-010
1.8182e-011
1.37416e-010
1.7151e-010
2.32101e-010
3.36619e-010
3.36213e-010
2.32595e-010
1.71154e-010
1.38349e-010
1.8458e-011
9.73639e-011
3.32033e-011
1.26008e-010
2.33306e-010
2.4881e-010
2.48746e-010
2.33284e-010
1.25849e-010
3.35697e-011
9.72439e-011
3.73203e-011
6.94804e-011
1.20363e-010
1.31074e-010
2.08913e-010
2.09115e-010
1.30628e-010
1.20452e-010
6.91408e-011
3.75399e-011
8.03072e-011
4.20857e-011
5.39409e-011
1.29605e-010
1.21277e-010
1.20957e-010
1.29615e-010
5.35202e-011
4.22208e-011
8.04497e-011
8.44847e-012
2.41688e-011
5.40285e-011
4.81708e-011
8.96924e-011
8.98256e-011
4.77939e-011
5.40213e-011
2.40268e-011
8.36683e-012
1.64585e-011
1.27e-011
4.66661e-012
3.15694e-011
3.36477e-011
3.33332e-011
3.1504e-011
4.45372e-012
1.28651e-011
1.64553e-011
1.7609e-011
8.64965e-012
8.04778e-012
7.5697e-012
4.00786e-012
4.15339e-012
7.60426e-012
8.1305e-012
8.70935e-012
1.76997e-011
4.61908e-012
2.19489e-011
1.72284e-011
1.8341e-011
1.88941e-011
1.89833e-011
1.83676e-011
1.73077e-011
2.19866e-011
4.60065e-012
7.78717e-012
1.07926e-011
2.81773e-011
2.1787e-011
2.34083e-011
2.34082e-011
2.17633e-011
2.8166e-011
1.0823e-011
7.74108e-012
6.88181e-012
1.09223e-011
1.55901e-011
2.09227e-011
1.68298e-011
1.67968e-011
2.09109e-011
1.55564e-011
1.08801e-011
6.89032e-012
2.20328e-012
4.2439e-012
8.48851e-012
1.06499e-011
1.24085e-011
1.24205e-011
1.06142e-011
8.46744e-012
4.22454e-012
2.17719e-012
2.27511e-012
3.0632e-012
1.85009e-012
2.48486e-012
5.4795e-012
5.46392e-012
2.48113e-012
1.84159e-012
3.03564e-012
2.30031e-012
2.40714e-012
1.84586e-012
2.08389e-012
1.28642e-012
1.5479e-012
1.5586e-012
1.28848e-012
2.05439e-012
1.87784e-012
2.40745e-012
1.59878e-012
1.40403e-012
1.59763e-012
1.45189e-012
1.23239e-012
1.23297e-012
1.44866e-012
1.62137e-012
1.38479e-012
1.58805e-012
1.4056e-012
1.51567e-012
1.20448e-012
1.47585e-012
1.42159e-012
1.4202e-012
1.47342e-012
1.21961e-012
1.49988e-012
1.41948e-012
1.38163e-012
1.61487e-012
1.43614e-012
1.25515e-012
1.4083e-012
1.40801e-012
1.26011e-012
1.42461e-012
1.61984e-012
1.39262e-012
1.43406e-012
3.41157e-013
3.21727e-012
2.51612e-012
7.09933e-013
7.09869e-013
2.51456e-012
3.21116e-012
3.30482e-013
1.42455e-012
3.05728e-012
2.07411e-012
3.60286e-012
5.39399e-012
1.81308e-012
1.81111e-012
5.39332e-012
3.59627e-012
2.07398e-012
3.05999e-012
1.13732e-012
6.65893e-012
4.12309e-012
2.43366e-012
4.28535e-012
4.28739e-012
2.4239e-012
4.12472e-012
6.65531e-012
1.13983e-012
1.14283e-012
3.78781e-012
5.39169e-012
3.19315e-012
1.73591e-012
1.73633e-012
3.20181e-012
5.3906e-012
3.79073e-012
1.13634e-012
1.31554e-012
5.25368e-013
2.76433e-012
3.29953e-012
1.06672e-012
1.067e-012
3.29959e-012
2.76442e-012
5.34782e-013
1.32223e-012
8.65611e-013
1.21437e-012
1.28382e-012
1.64794e-012
1.69369e-012
1.69409e-012
1.64791e-012
1.28156e-012
1.21876e-012
8.62213e-013
1.32636e-012
1.39749e-012
1.36081e-012
1.41539e-012
1.41634e-012
1.41399e-012
1.4153e-012
1.36466e-012
1.39236e-012
1.32748e-012
1.26724e-012
1.19354e-012
1.59529e-012
1.42093e-012
1.41267e-012
1.41424e-012
1.42001e-012
1.59818e-012
1.19311e-012
1.26416e-012
2.21371e-012
1.82525e-012
1.07915e-012
1.42957e-012
1.41267e-012
1.41416e-012
1.44008e-012
1.06899e-012
1.8158e-012
2.22123e-012
6.70136e-013
3.29704e-012
1.68695e-012
1.594e-012
1.41417e-012
1.41477e-012
1.58873e-012
1.66683e-012
3.31804e-012
6.57536e-013
1.74181e-012
3.80851e-012
2.3942e-012
1.58315e-012
1.20378e-012
1.20332e-012
1.58121e-012
2.38982e-012
3.80179e-012
1.74287e-012
5.77858e-012
5.61169e-012
5.04398e-012
3.37081e-012
2.11155e-012
2.10666e-012
3.3705e-012
5.05621e-012
5.57988e-012
5.75701e-012
3.46665e-012
2.34879e-012
1.00982e-011
4.04872e-012
2.3219e-012
2.32449e-012
4.06092e-012
1.01001e-011
2.36002e-012
3.45291e-012
3.9493e-012
9.80346e-012
6.49957e-012
7.88229e-012
3.32701e-012
3.33048e-012
7.86927e-012
6.52237e-012
9.81481e-012
3.94921e-012
3.99935e-012
4.67754e-012
9.69959e-012
7.85003e-012
2.36411e-012
2.35105e-012
7.85874e-012
9.68821e-012
4.71403e-012
4.0177e-012
1.2508e-012
7.51701e-012
6.88399e-012
2.80077e-012
4.67453e-012
4.68056e-012
2.80379e-012
6.88773e-012
7.49948e-012
1.23825e-012
2.8514e-012
3.58517e-012
1.11067e-012
2.79919e-012
1.37917e-012
1.37652e-012
2.80122e-012
1.11272e-012
3.58308e-012
2.85329e-012
1.57678e-012
1.7418e-012
1.07943e-012
1.1041e-012
3.6833e-012
3.67631e-012
1.11587e-012
1.06785e-012
1.73844e-012
1.57913e-012
3.99246e-012
1.2084e-012
6.58503e-012
7.51039e-012
3.97824e-012
3.98189e-012
7.50108e-012
6.59088e-012
1.21708e-012
3.99208e-012
9.34043e-013
4.0469e-012
5.15642e-012
8.40866e-012
6.55814e-012
6.5593e-012
8.42239e-012
5.12107e-012
4.02502e-012
9.32237e-013
5.69478e-013
2.18797e-012
6.8655e-012
5.95414e-012
3.99436e-012
3.99002e-012
5.95036e-012
6.87341e-012
2.16002e-012
5.79982e-013
1.52628e-012
3.42188e-012
3.20278e-012
7.28773e-013
2.49563e-012
2.49444e-012
7.28874e-013
3.19106e-012
3.42229e-012
1.52641e-012
1.37578e-012
1.74e-012
1.10692e-012
1.43864e-012
1.46277e-012
1.46316e-012
1.43832e-012
1.10944e-012
1.73644e-012
1.37527e-012
1.2075e-012
1.61577e-012
1.42036e-012
1.43194e-012
1.44794e-012
1.44756e-012
1.43276e-012
1.41892e-012
1.61397e-012
1.20858e-012
1.47879e-012
1.27412e-012
1.47362e-012
1.49165e-012
2.30138e-012
2.29531e-012
1.49179e-012
1.47381e-012
1.2761e-012
1.47632e-012
2.21437e-012
1.18847e-012
1.24256e-012
4.63621e-012
7.1698e-012
7.18786e-012
4.64268e-012
1.24229e-012
1.18878e-012
2.21463e-012
4.47598e-012
1.55206e-012
3.49356e-012
3.85754e-012
7.53573e-012
7.52802e-012
3.87722e-012
3.50401e-012
1.5486e-012
4.4765e-012
6.60189e-013
1.86556e-012
2.32933e-012
6.74839e-012
4.57427e-012
4.5803e-012
6.7356e-012
2.33745e-012
1.86687e-012
6.59043e-013
1.12363e-012
1.3337e-012
3.09877e-012
2.72153e-012
1.70122e-012
1.70193e-012
2.71561e-012
3.09085e-012
1.3319e-012
1.12811e-012
1.42796e-012
1.67323e-012
1.40855e-012
1.35807e-012
1.51428e-012
1.51424e-012
1.35939e-012
1.40884e-012
1.67342e-012
1.42776e-012
1.38991e-012
1.39732e-012
1.36688e-012
1.41384e-012
1.46533e-012
1.46588e-012
1.41467e-012
1.36658e-012
1.39979e-012
1.38836e-012
1.32461e-012
1.4548e-012
1.41473e-012
1.41677e-012
1.46374e-012
1.46515e-012
1.41553e-012
1.41275e-012
1.44916e-012
1.32791e-012
1.26587e-012
1.15895e-012
1.81383e-012
1.4124e-012
1.46204e-012
1.46215e-012
1.41497e-012
1.8143e-012
1.16553e-012
1.2625e-012
2.11264e-012
6.13803e-013
1.41117e-012
1.41443e-012
1.4615e-012
1.4611e-012
1.41251e-012
1.41278e-012
6.1265e-013
2.11232e-012
1.35736e-012
1.79698e-012
1.01614e-012
1.41252e-012
1.46059e-012
1.4606e-012
1.41486e-012
1.01593e-012
1.79629e-012
1.35737e-012
1.35944e-012
1.41507e-012
1.41565e-012
1.47285e-012
1.42176e-012
1.42223e-012
1.47156e-012
1.41574e-012
1.41471e-012
1.35904e-012
1.16995e-012
1.61008e-012
1.49746e-012
2.2549e-012
1.79007e-012
1.79212e-012
2.25253e-012
1.49518e-012
1.61023e-012
1.17031e-012
1.84034e-012
1.28026e-012
7.48788e-014
2.68761e-012
4.58675e-012
4.58356e-012
2.68921e-012
7.63578e-014
1.27824e-012
1.84182e-012
2.12682e-012
1.49492e-012
1.45143e-012
3.23948e-012
5.84439e-012
5.85127e-012
3.2399e-012
1.4513e-012
1.49696e-012
2.12926e-012
2.92638e-012
1.49584e-012
2.79113e-012
2.64763e-013
6.1385e-012
6.13423e-012
2.7227e-013
2.79199e-012
1.4964e-012
2.92156e-012
1.24563e-012
1.38263e-012
1.59783e-012
3.20375e-012
1.38854e-012
1.38861e-012
3.20488e-012
1.59701e-012
1.38067e-012
1.24674e-012
1.30026e-012
1.43092e-012
1.67767e-012
1.51722e-012
1.34849e-012
1.34766e-012
1.51963e-012
1.68054e-012
1.43122e-012
1.3011e-012
1.36708e-012
1.39152e-012
1.41379e-012
1.37863e-012
1.48108e-012
1.48224e-012
1.37748e-012
1.41352e-012
1.39044e-012
1.3674e-012
1.36804e-012
1.41397e-012
1.41414e-012
1.45462e-012
1.41626e-012
1.41325e-012
1.45477e-012
1.41427e-012
1.41369e-012
1.36852e-012
1.36944e-012
1.41411e-012
1.41512e-012
1.45386e-012
1.41175e-012
1.41408e-012
1.45357e-012
1.41482e-012
1.41424e-012
1.36939e-012
1.37012e-012
1.41425e-012
1.41378e-012
1.48001e-012
1.39115e-012
1.39212e-012
1.48044e-012
1.41268e-012
1.41426e-012
1.37004e-012
1.37108e-012
1.41856e-012
1.41403e-012
1.42484e-012
1.58233e-012
1.57614e-012
1.42461e-012
1.41486e-012
1.41926e-012
1.3714e-012
1.47866e-012
1.57416e-012
1.72084e-012
1.22079e-012
2.49562e-012
2.50888e-012
1.22611e-012
1.71892e-012
1.5746e-012
1.47812e-012
2.46721e-012
2.2204e-012
2.57297e-012
4.55304e-012
2.41683e-012
2.4145e-012
4.55189e-012
2.58038e-012
2.22057e-012
2.4718e-012
1.21861e-011
2.83435e-012
2.25001e-012
1.89128e-012
4.2167e-012
4.21376e-012
1.89473e-012
2.26069e-012
2.83755e-012
1.21952e-011
	1	12	13	2
	2	13	14	3
	3	14	15	4
	4	15	16	5
	5	16	17	6
	6	17	18	7
	7	18	19	8
	8	19	20	9
	9	20	21	10
	10	21	22	11
	12	23	24	13
	13	24	25	14
	14	25	26	15
	15	26	27	16
	16	27	28	17
	17	28	29	18
	18	29	30	19
	19	30	31	20
	20	31	32	21
	21	32	33	22
	23	34	35	24
	24	35	36	25
	25	36	37	26
	26	37	38	27
	27	38	39	28
	28	39	40	29
	29	40	41	30
	30	41	42	31
	31	42	43	32
	32	43	44	33
	34	45	46	35
	35	46	47	36
	36	47	48	37
	37	48	49	38
	38	49	50	39
	39	50	51	40
	40	51	52	41
	41	52	53	42
	42	53	54	43
	43	54	55	44
	45	56	57	46
	46	57	58	47
	47	58	59	48
	48	59	60	49
	49	60	61	50
	50	61	62	51
	51	62	63	52
	52	63	64	53
	53	64	65	54
	54	65	66	55
	56	67	68	57
	57	68	69	58
	58	69	70	59
	59	70	71	60
	60	71	72	61
	61	72	73	62
	62	73	74	63
	63	74	75	64
	64	75	76	65
	65	76	77	66
	67	78	79	68
	68	79	80	69
	69	80	81	70
	70	81	82	71
	71	82	83	72
	72	83	84	73
	73	84	85	74
	74	85	86	75
	75	86	87	76
	76	87	88	77
	78	89	90	79
	79	90	91	80
	80	91	92	81
	81	92	93	82
	82	93	94	83
	83	94	95	84
	84	95	96	85
	85	96	97	86
	86	97	98	87
	87	98	99	88
	89	100	101	90
	90	101	102	91
	91	102	103	92
	92	103	104	93
	93	104	105	94
	94	105	106	95
	95	106	107	96
	96	107	108	97
	97	108	109	98
	98	109	110	99
	100	111	112	101
	101	112	113	102
	102	113	114	103
	103	114	115	104
	104	115	116	105
	105	116	117	106
	106	117	118	107
	107	118	119	108
	108	119	120	109
	109	120	121	110
	111	122	123	112
	112	123	124	113
	113	124	125	114
	114	125	126	115
	115	126	127	116
	116	127	128	117
	117	128	129	118
	118	129	130	119
	119	130	131	120
	120	131	132	121
	122	133	134	123
	123	134	135	124
	124	135	136	125
	125	136	137	126
	126	137	138	127
	127	138	139	128
	128	139	140	129
	129	140	141	130
	130	141	142	131
	131	142	143	132
	133	144	145	134
	134	145	146	135
	135	146	147	136
	136	147	148	137
	137	148	149	138
	138	149	150	139
	139	150	151	140
	140	151	152	141
	141	152	153	142
	142	153	154	143
	144	155	156	145
	145	156	157	146
	146	157	158	147
	147	158	159	148
	148	159	160	149
	149	160	161	150
	150	161	162	151
	151	162	163	152
	152	163	164	153
	153	164	165	154
	155	166	167	156
	156	167	168	157
	157	168	169	158
	158	169	170	159
	159	170	171	160
	160	171	172	161
	161	172	173	162
	162	173	174	163
	163	174	175	164
	164	175	176	165
	166	177	178	167
	167	178	179	168
	168	179	180	169
	169	180	181	170
	170	181	182	171
	171	182	183	172
	172	183	184	173
	173	184	185	174
	174	185	186	175
	175	186	187	176
	177	188	189	178
	178	189	190	179
	179	190	191	180
	180	191	192	181
	181	192	193	182
	182	193	194	183
	183	194	195	184
	184	195	196	185
	185	196	197	186
	186	197	198	187
	188	199	200	189
	189	200	201	190
	190	201	202	191
	191	202	203	192
	192	203	204	193
	193	204	205	194
	194	205	206	195
	195	206	207	196
	196	207	208	197
	197	208	209	198
	199	210	211	200
	200	211	212	201
	201	212	213	202
	202	213	214	203
	203	214	215	204
	204	215	216	205
	205	216	217	206
	206	217	218	207
	207	218	219	208
	208	219	220	209
	210	221	222	211
	211	222	223	212
	212	223	224	213
	213	224	225	214
	214	225	226	215
	215	226	227	216
	216	227	228	217
	217	228	229	218
	218	229	230	219
	219	230	231	220
	221	232	233	222
	222	233	234	223
	223	234	235	224
	224	235	236	225
	225	236	237	226
	226	237	238	227
	227	238	239	228
	228	239	240	229
	229	240	241	230
	230	241	242	231
	232	243	244	233
	233	244	245	234
	234	245	246	235
	235	246	247	236
	236	247	248	237
	237	248	249	238
	238	249	250	239
	239	250	251	240
	240	251	252	241
	241	252	253	242
	243	254	255	244
	244	255	256	245
	245	256	257	246
	246	257	258	247
	247	258	259	248
	248	259	260	249
	249	260	261	250
	250	261	262	251
	251	262	263	252
	252	263	264	253
	254	265	266	255
	255	266	267	256
	256	267	268	257
	257	268	269	258
	258	269	270	259
	259	270	271	260
	260	271	272	261
	261	272	273	262
	262	273	274	263
	263	274	275	264
	265	276	277	266
	266	277	278	267
	267	278	279	268
	268	279	280	269
	269	280	281	270
	270	281	282	271
	271	282	283	272
	272	283	284	273
	273	284	285	274
	274	285	286	275
	276	287	288	277
	277	288	289	278
	278	289	290	279